 Gaussian 16, Revision A.03,
 Gaussian 16:  EM64L-G16RevA.03 25-Dec-2016

 ----------------------------------------------------------------------
 #t B3LYP/6-31G(d,p) scrf=(solvent=water) # Gfinput IOP(6/7=3) Pop=hirs
 hfeld Density Test # Units(Ang,Deg)
 ----------------------------------------------------------------------
 -------------------
 eti-3dp-opt-g09.log
 -------------------
 Symbolic Z-matrix:
 Charge = -2 Multiplicity = 2

                         Standard orientation:
 ---------------------------------------------------------------------
 Center     Atomic      Atomic             Coordinates (Angstroms)
 Number     Number       Type             X           Y           Z
 ---------------------------------------------------------------------
      1          6           0       -0.076754    1.857931   -0.840479
      2          1           0       -0.177993    1.532031   -1.880109
      3          1           0        0.834835    2.454443   -0.758059
      4          6           0        0.011459    0.657531    0.104421
      5          8           0        0.051608    1.160501    1.465161
      6          1           0        0.766949    0.571923    1.830951
      7         15           0        1.689201   -0.273295   -0.096389
      8         15           0       -1.522659   -0.384552   -0.064579
      9          8           0        2.000591   -0.537815    1.415311
     10          8           0       -1.560857   -1.503502    0.960051
     11          8           0       -2.721431    0.712615    0.428511
     12          8           0        2.656229    0.739817   -0.743929
     13          8           0        1.488733   -1.557206   -0.922659
     14          8           0       -1.849168   -0.679133   -1.524119
     15          1           0       -0.945285    2.483889   -0.598949
     16          1           0       -3.110492    1.050435   -0.389589
 ---------------------------------------------------------------------

 SCF Done:  E(UB3LYP) =  -1288.86767934     A.U. after   27 cycles

 The electronic state is 2-A.
 Alpha  occ. eigenvalues --  -77.16598 -77.14222 -19.12481 -19.12372 -19.12286
 Alpha  occ. eigenvalues --  -19.12177 -19.12106 -19.05408 -19.05192 -10.21500
 Alpha  occ. eigenvalues --  -10.16124  -6.61450  -6.59066  -4.77785  -4.77751
 Alpha  occ. eigenvalues --   -4.77714  -4.75570  -4.75270  -4.75248  -1.01317
 Alpha  occ. eigenvalues --   -0.99181  -0.98039  -0.93028  -0.92935  -0.91277
 Alpha  occ. eigenvalues --   -0.87471  -0.72728  -0.59840  -0.53514  -0.49807
 Alpha  occ. eigenvalues --   -0.47215  -0.44739  -0.41023  -0.40542  -0.39784
 Alpha  occ. eigenvalues --   -0.38690  -0.37771  -0.36695  -0.35123  -0.34722
 Alpha  occ. eigenvalues --   -0.32740  -0.32617  -0.32438  -0.29730  -0.28613
 Alpha  occ. eigenvalues --   -0.27946  -0.27605  -0.27336  -0.25805  -0.24898
 Alpha  occ. eigenvalues --   -0.23376  -0.22066  -0.21491
 Alpha virt. eigenvalues --    0.09144   0.10942   0.11833   0.12858   0.16223
 Alpha virt. eigenvalues --    0.16710   0.17379   0.17640   0.20909   0.21505
 Alpha virt. eigenvalues --    0.22724   0.23284   0.26000   0.26832   0.28537

  Beta  occ. eigenvalues --  -77.16626 -77.14219 -19.12275 -19.12167 -19.11654
  Beta  occ. eigenvalues --  -19.11399 -19.11216 -19.05366 -19.05186 -10.21461
  Beta  occ. eigenvalues --  -10.16127  -6.61487  -6.59063  -4.77841  -4.77806
  Beta  occ. eigenvalues --   -4.77738  -4.75570  -4.75263  -4.75244  -1.00437
  Beta  occ. eigenvalues --   -0.98844  -0.97276  -0.91281  -0.90756  -0.90604
  Beta  occ. eigenvalues --   -0.87404  -0.72635  -0.59673  -0.53114  -0.49625
  Beta  occ. eigenvalues --   -0.46775  -0.44403  -0.40346  -0.40182  -0.38702
  Beta  occ. eigenvalues --   -0.37837  -0.37271  -0.36552  -0.34899  -0.34329
  Beta  occ. eigenvalues --   -0.32408  -0.29630  -0.28972  -0.28320  -0.27092
  Beta  occ. eigenvalues --   -0.26890  -0.26624  -0.25229  -0.24639  -0.23251
  Beta  occ. eigenvalues --   -0.22020  -0.21071
  Beta virt. eigenvalues --   -0.16496   0.09268   0.11289   0.12124   0.13232
  Beta virt. eigenvalues --    0.16360   0.16931   0.17627   0.18092   0.21050
  Beta virt. eigenvalues --    0.21564   0.22942   0.23652   0.26337   0.27060

 Mulliken charges and spin densities:
               1          2
     1  C   -0.316867  -0.002291
     2  H    0.104368   0.000284
     3  H    0.102783   0.002156
     4  C   -0.133296   0.027003
     5  O   -0.600453   0.036138
     6  H    0.330421  -0.003001
     7  P    0.951659  -0.145908
     8  P    0.973085   0.004133
     9  O   -0.612969   0.333038
    10  O   -0.708614   0.003137
    11  O   -0.657901   0.003502
    12  O   -0.558649   0.362597
    13  O   -0.556425   0.361123
    14  O   -0.726353   0.016718
    15  H    0.094045   0.001535
    16  H    0.315164  -0.000165
 Sum of Mulliken charges =  -2.00000   1.00000

 Dipole moment (field-independent basis, Debye):
    X=             -0.1636    Y=              6.9739    Z=             -1.0173  Tot=              7.0496
 There are a total of      357778 grid points.
 ElSum from          density=      105.0000056293
 ElSum from atomic densities=      103.0000114691
 Hirshfeld populations at iteration   1 (CA, CB, DipXYZ):
               1          2          3          4          5
     1  C    3.053457   3.053278  -0.012000   0.004487  -0.006709
     2  H    0.487900   0.488121  -0.004910  -0.021068  -0.132805
     3  H    0.491639   0.490580   0.092049   0.092593   0.006153
     4  C    3.014010   2.995884   0.007812   0.063354   0.043459
     5  O    4.155624   4.122662   0.080250  -0.111940  -0.089203

 Normal termination of Gaussian 16 at Tue Feb  9 22:25:11 2021.
