 Gaussian 16, Revision A.03,
 Gaussian 16:  EM64L-G16RevA.03 25-Dec-2016

 ----------------------------------------------------------------------
 #P B3LYP/6-31G(d,p) # Opt SCRF=(Solvent=Water) # Gfinput IOP(6/7=3) Po
 p=full Density Test # Units(Ang,Deg)
 ----------------------------------------------------------------------

 -------------------
 eti-2dp-opt-g09.log
 -------------------
 Symbolic Z-matrix:
 Charge = -3 Multiplicity = 1

 SCF Done:  E(RB3LYP) =  -1289.00577804     A.U. after   13 cycles
 SCF Done:  E(RB3LYP) =  -1289.02297291     A.U. after   11 cycles
 SCF Done:  E(RB3LYP) =  -1289.02598516     A.U. after   11 cycles
 SCF Done:  E(RB3LYP) =  -1289.02751073     A.U. after   11 cycles
 SCF Done:  E(RB3LYP) =  -1289.02738629     A.U. after   11 cycles
 SCF Done:  E(RB3LYP) =  -1289.02745927     A.U. after   11 cycles
 SCF Done:  E(RB3LYP) =  -1289.02784070     A.U. after    8 cycles
 SCF Done:  E(RB3LYP) =  -1289.02796606     A.U. after   10 cycles
 SCF Done:  E(RB3LYP) =  -1289.02803589     A.U. after    9 cycles
 SCF Done:  E(RB3LYP) =  -1289.02804176     A.U. after    8 cycles
 SCF Done:  E(RB3LYP) =  -1289.02804244     A.U. after    8 cycles
 SCF Done:  E(RB3LYP) =  -1289.02804286     A.U. after    7 cycles
 SCF Done:  E(RB3LYP) =  -1289.02804315     A.U. after    7 cycles
 SCF Done:  E(RB3LYP) =  -1289.02804334     A.U. after    8 cycles
 SCF Done:  E(RB3LYP) =  -1289.02804337     A.U. after    7 cycles
 SCF Done:  E(RB3LYP) =  -1289.02804351     A.U. after    8 cycles
 SCF Done:  E(RB3LYP) =  -1289.02804357     A.U. after    7 cycles
 SCF Done:  E(RB3LYP) =  -1289.02804378     A.U. after    6 cycles
 Optimization completed.
    -- Stationary point found.

                         Standard orientation:
 ---------------------------------------------------------------------
 Center     Atomic      Atomic             Coordinates (Angstroms)
 Number     Number       Type             X           Y           Z
 ---------------------------------------------------------------------
      1          6           0       -0.076750    1.857930   -0.840483
      2          1           0       -0.177986    1.532029   -1.880106
      3          1           0        0.834845    2.454435   -0.758062
      4          6           0        0.011463    0.657534    0.104424
      5          8           0        0.051613    1.160505    1.465163
      6          1           0        0.766946    0.571920    1.830945
      7         15           0        1.689200   -0.273295   -0.096389
      8         15           0       -1.522658   -0.384552   -0.064580
      9          8           0        2.000588   -0.537816    1.415309
     10          8           0       -1.560861   -1.503500    0.960050
     11          8           0       -2.721431    0.712622    0.428507
     12          8           0        2.656231    0.739811   -0.743928
     13          8           0        1.488726   -1.557213   -0.922655
     14          8           0       -1.849170   -0.679134   -1.524116
     15          1           0       -0.945279    2.483889   -0.598951
     16          1           0       -3.110489    1.050435   -0.389585
 ---------------------------------------------------------------------

 The electronic state is 1-A.
 Alpha  occ. eigenvalues --  -77.11938 -77.08604 -19.10648 -19.08094 -19.03500
 Alpha  occ. eigenvalues --  -19.03474 -19.01348 -19.00671 -19.00478 -10.16939
 Alpha  occ. eigenvalues --  -10.13921  -6.56798  -6.53315  -4.73328  -4.73013
 Alpha  occ. eigenvalues --   -4.72933  -4.69691  -4.69619  -4.69584  -0.97620
 Alpha  occ. eigenvalues --   -0.95190  -0.89657  -0.89549  -0.85725  -0.82510
 Alpha  occ. eigenvalues --   -0.82061  -0.69707  -0.56538  -0.49873  -0.45539
 Alpha  occ. eigenvalues --   -0.43064  -0.38842  -0.38580  -0.36643  -0.35650
 Alpha  occ. eigenvalues --   -0.34444  -0.33032  -0.30993  -0.30369  -0.30086
 Alpha  occ. eigenvalues --   -0.28475  -0.27449  -0.25108  -0.24101  -0.22456
 Alpha  occ. eigenvalues --   -0.22069  -0.21524  -0.20522  -0.20226  -0.19074
 Alpha  occ. eigenvalues --   -0.18352  -0.17155  -0.15515
 Alpha virt. eigenvalues --    0.10798   0.14749   0.15675   0.15983   0.18863
 Alpha virt. eigenvalues --    0.19645   0.20856   0.21921   0.23107   0.24585
 Alpha virt. eigenvalues --    0.26282   0.26720   0.29355   0.30211   0.32445

 Mulliken charges:
               1
     1  C   -0.303777
     2  H    0.077685
     3  H    0.076769
     4  C   -0.111832
     5  O   -0.649618
     6  H    0.296498
     7  P    0.804264
     8  P    0.937480
     9  O   -0.801882
    10  O   -0.729767
    11  O   -0.667594
    12  O   -0.769171
    13  O   -0.769818
    14  O   -0.752754
    15  H    0.058781
    16  H    0.304735
 Sum of Mulliken charges =  -3.00000

 Dipole moment (field-independent basis, Debye):
    X=             -7.2192    Y=              8.0198    Z=             -0.6661  Tot=             10.8110
 Quadrupole moment (field-independent basis, Debye-Ang):
   XX=           -140.1983   YY=           -106.0913   ZZ=           -106.8419
   XY=             -6.3777   XZ=              5.1504   YZ=             -3.8587

 Normal termination of Gaussian 16 at Tue Feb  9 16:21:45 2021.
