 Gaussian 16, Revision A.03,
 Gaussian 16:  EM64L-G16RevA.03 25-Dec-2016

 ----------------------------------------------------------------------
 #t B3LYP/6-31G(d,p) scrf=(solvent=water) # Gfinput IOP(6/7=3) Pop=hirs
 hfeld Density Test # Units(Ang,Deg)
 ----------------------------------------------------------------------
 -------------------
 eti-3dp-opt-g09.log
 -------------------
 Symbolic Z-matrix:
 Charge = -3 Multiplicity = 1

                         Standard orientation:
 ---------------------------------------------------------------------
 Center     Atomic      Atomic             Coordinates (Angstroms)
 Number     Number       Type             X           Y           Z
 ---------------------------------------------------------------------
      1          6           0       -0.076754    1.857931   -0.840479
      2          1           0       -0.177993    1.532031   -1.880109
      3          1           0        0.834835    2.454443   -0.758059
      4          6           0        0.011459    0.657531    0.104421
      5          8           0        0.051608    1.160501    1.465161
      6          1           0        0.766949    0.571923    1.830951
      7         15           0        1.689201   -0.273295   -0.096389
      8         15           0       -1.522659   -0.384552   -0.064579
      9          8           0        2.000591   -0.537815    1.415311
     10          8           0       -1.560857   -1.503502    0.960051
     11          8           0       -2.721431    0.712615    0.428511
     12          8           0        2.656229    0.739817   -0.743929
     13          8           0        1.488733   -1.557206   -0.922659
     14          8           0       -1.849168   -0.679133   -1.524119
     15          1           0       -0.945285    2.483889   -0.598949
     16          1           0       -3.110492    1.050435   -0.389589
 ---------------------------------------------------------------------

 SCF Done:  E(RB3LYP) =  -1289.02804378     A.U. after   13 cycles

 The electronic state is 1-A.
 Alpha  occ. eigenvalues --  -77.11938 -77.08604 -19.10648 -19.08094 -19.03500
 Alpha  occ. eigenvalues --  -19.03474 -19.01348 -19.00671 -19.00478 -10.16939
 Alpha  occ. eigenvalues --  -10.13921  -6.56798  -6.53315  -4.73328  -4.73013
 Alpha  occ. eigenvalues --   -4.72933  -4.69691  -4.69619  -4.69584  -0.97620
 Alpha  occ. eigenvalues --   -0.95190  -0.89657  -0.89549  -0.85725  -0.82510
 Alpha  occ. eigenvalues --   -0.82061  -0.69707  -0.56538  -0.49873  -0.45539
 Alpha  occ. eigenvalues --   -0.43064  -0.38842  -0.38580  -0.36643  -0.35650
 Alpha  occ. eigenvalues --   -0.34444  -0.33032  -0.30993  -0.30369  -0.30086
 Alpha  occ. eigenvalues --   -0.28475  -0.27449  -0.25108  -0.24101  -0.22456
 Alpha  occ. eigenvalues --   -0.22069  -0.21524  -0.20522  -0.20226  -0.19074
 Alpha  occ. eigenvalues --   -0.18352  -0.17155  -0.15515
 Alpha virt. eigenvalues --    0.10797   0.14749   0.15675   0.15983   0.18863
 Alpha virt. eigenvalues --    0.19645   0.20856   0.21921   0.23107   0.24585
 Alpha virt. eigenvalues --    0.26282   0.26720   0.29355   0.30211   0.32445

 Mulliken charges:
               1
     1  C   -0.303776
     2  H    0.077684
     3  H    0.076770
     4  C   -0.111830
     5  O   -0.649620
     6  H    0.296499
     7  P    0.804265
     8  P    0.937481
     9  O   -0.801884
    10  O   -0.729768
    11  O   -0.667593
    12  O   -0.769174
    13  O   -0.769814
    14  O   -0.752757
    15  H    0.058781
    16  H    0.304737
 Sum of Mulliken charges =  -3.00000

 Dipole moment (field-independent basis, Debye):
    X=             -7.2192    Y=              8.0197    Z=             -0.6660  Tot=             10.8110
 There are a total of      357778 grid points.
 ElSum from          density=      106.0000069984
 ElSum from atomic densities=      103.0000114691
 Hirshfeld populations at iteration   1 (CA, CB, DipXYZ):
               1          2          3          4          5
     1  C    3.058859   3.058859  -0.010281  -0.006768  -0.002479
     2  H    0.494341   0.494341  -0.005445  -0.021669  -0.122650
     3  H    0.497820   0.497820   0.079625   0.086936   0.007121
     4  C    3.014021   3.014021   0.002228   0.067907   0.045005
     5  O    4.162811   4.162811   0.092124  -0.126932  -0.112761

 Normal termination of Gaussian 16 at Tue Feb  9 22:26:18 2021.
