 Gaussian 16, Revision A.03,
 Gaussian 16:  EM64L-G16RevA.03 25-Dec-2016

 ----------------------------------------------------------------------
 #t B3LYP/6-31G(d,p) scrf=(solvent=water) # Gfinput IOP(6/7=3) Pop=hirs
 hfeld Density Test # Units(Ang,Deg)
 ----------------------------------------------------------------------
 -------------------
 eti-3dp-opt-g09.log
 -------------------
 Symbolic Z-matrix:
 Charge = -4 Multiplicity = 2

                         Standard orientation:
 ---------------------------------------------------------------------
 Center     Atomic      Atomic             Coordinates (Angstroms)
 Number     Number       Type             X           Y           Z
 ---------------------------------------------------------------------
      1          6           0       -0.076754    1.857931   -0.840479
      2          1           0       -0.177993    1.532031   -1.880109
      3          1           0        0.834835    2.454443   -0.758059
      4          6           0        0.011459    0.657531    0.104421
      5          8           0        0.051608    1.160501    1.465161
      6          1           0        0.766949    0.571923    1.830951
      7         15           0        1.689201   -0.273295   -0.096389
      8         15           0       -1.522659   -0.384552   -0.064579
      9          8           0        2.000591   -0.537815    1.415311
     10          8           0       -1.560857   -1.503502    0.960051
     11          8           0       -2.721431    0.712615    0.428511
     12          8           0        2.656229    0.739817   -0.743929
     13          8           0        1.488733   -1.557206   -0.922659
     14          8           0       -1.849168   -0.679133   -1.524119
     15          1           0       -0.945285    2.483889   -0.598949
     16          1           0       -3.110492    1.050435   -0.389589
 ---------------------------------------------------------------------

 SCF Done:  E(UB3LYP) =  -1288.94221780     A.U. after   19 cycles

 The electronic state is 2-A.
 Alpha  occ. eigenvalues --  -77.08207 -77.07435 -19.06515 -19.02095 -19.00561
 Alpha  occ. eigenvalues --  -19.00458 -19.00211 -18.99828 -18.99495 -10.14549
 Alpha  occ. eigenvalues --  -10.11416  -6.53001  -6.52155  -4.69459  -4.69252
 Alpha  occ. eigenvalues --   -4.69194  -4.68511  -4.68463  -4.68435  -0.93966
 Alpha  occ. eigenvalues --   -0.91215  -0.88661  -0.85340  -0.82732  -0.81637
 Alpha  occ. eigenvalues --   -0.81176  -0.67530  -0.54119  -0.45778  -0.43593
 Alpha  occ. eigenvalues --   -0.39395  -0.37468  -0.35176  -0.34454  -0.33218
 Alpha  occ. eigenvalues --   -0.31458  -0.30099  -0.29528  -0.28977  -0.27751
 Alpha  occ. eigenvalues --   -0.27033  -0.23614  -0.22040  -0.21459  -0.21352
 Alpha  occ. eigenvalues --   -0.20361  -0.19087  -0.18397  -0.17725  -0.17530
 Alpha  occ. eigenvalues --   -0.17292  -0.15323  -0.14656   0.06643
 Alpha virt. eigenvalues --    0.16110   0.16610   0.17772   0.19826   0.20906
 Alpha virt. eigenvalues --    0.22952   0.23133   0.25074   0.26255   0.27658
 Alpha virt. eigenvalues --    0.28588   0.30671   0.32246   0.33681   0.41034

  Beta  occ. eigenvalues --  -77.08195 -77.07435 -19.06510 -19.01398 -19.00489
  Beta  occ. eigenvalues --  -19.00455 -19.00139 -18.99827 -18.99479 -10.14508
  Beta  occ. eigenvalues --  -10.11281  -6.52982  -6.52155  -4.69436  -4.69238
  Beta  occ. eigenvalues --   -4.69184  -4.68512  -4.68464  -4.68434  -0.93911
  Beta  occ. eigenvalues --   -0.90469  -0.88647  -0.84436  -0.82551  -0.81629
  Beta  occ. eigenvalues --   -0.81151  -0.67359  -0.53886  -0.45344  -0.43455
  Beta  occ. eigenvalues --   -0.38805  -0.37288  -0.34764  -0.34264  -0.33079
  Beta  occ. eigenvalues --   -0.31287  -0.29889  -0.29490  -0.28924  -0.27475
  Beta  occ. eigenvalues --   -0.26877  -0.23474  -0.21732  -0.21426  -0.21300
  Beta  occ. eigenvalues --   -0.20090  -0.18920  -0.18237  -0.17616  -0.17373
  Beta  occ. eigenvalues --   -0.17194  -0.15222  -0.14629
  Beta virt. eigenvalues --    0.14509   0.16821   0.17885   0.18069   0.20328
  Beta virt. eigenvalues --    0.21511   0.23255   0.24314   0.25876   0.26557
  Beta virt. eigenvalues --    0.27848   0.29084   0.30815   0.32542   0.33829

 Mulliken charges and spin densities:
               1          2
     1  C   -0.231618  -0.013030
     2  H    0.023561   0.026177
     3  H    0.032356   0.013146
     4  C   -0.103712   0.017664
     5  O   -0.660231  -0.001097
     6  H    0.284110   0.004423
     7  P    0.770575   0.010942
     8  P    0.828674   0.097462
     9  O   -0.809198  -0.000437
    10  O   -0.750493  -0.000038
    11  O   -0.523291  -0.074452
    12  O   -0.774812   0.000207
    13  O   -0.776941  -0.000702
    14  O   -0.765477   0.000438
    15  H   -0.056808   0.105068
    16  H   -0.486695   0.814230
 Sum of Mulliken charges =  -4.00000   1.00000

 Dipole moment (field-independent basis, Debye):
    X=              4.3583    Y=              3.2806    Z=              1.7814  Tot=              5.7385
 There are a total of      357778 grid points.
 ElSum from          density=      107.0000046891
 ElSum from atomic densities=      103.0000114691
 Hirshfeld populations at iteration   1 (CA, CB, DipXYZ):
               1          2          3          4          5
     1  C    3.100161   3.050335   0.032872  -0.036887   0.012721
     2  H    0.515561   0.498532   0.004842  -0.018731  -0.100598
     3  H    0.512284   0.504197   0.067755   0.076244   0.008077
     4  C    3.028357   3.008965   0.007029   0.068111   0.048866
     5  O    4.171644   4.166623   0.095457  -0.133200  -0.122690

 Normal termination of Gaussian 16 at Tue Feb  9 22:23:41 2021.
