 Gaussian 16, Revision A.03,
 Gaussian 16:  EM64L-G16RevA.03 25-Dec-2016

 ----------------------------------------------------------------------
 #t B3LYP/6-31G(d,p) scrf=(solvent=water) # Gfinput IOP(6/7=3) Pop=hirs
 hfeld Density Test # Units(Ang,Deg)
 ----------------------------------------------------------------------
 --------------------------
 w-risendronate-opt-g09.log
 --------------------------
 Symbolic Z-matrix:
 Charge =  1 Multiplicity = 2

                         Standard orientation:
 ---------------------------------------------------------------------
 Center     Atomic      Atomic             Coordinates (Angstroms)
 Number     Number       Type             X           Y           Z
 ---------------------------------------------------------------------
      1          6           0       -0.670620   -0.260511   -0.222721
      2          8           0       -0.459220   -0.661611   -1.564661
      3          1           0       -1.187050   -0.317171   -2.106601
      4         15           0       -2.407130   -0.732722    0.300039
      5         15           0       -0.389031    1.579269   -0.024061
      6          8           0       -3.195490   -0.430302   -1.075061
      7          1           0       -3.954310   -1.017282   -1.222631
      8          8           0       -2.425609   -2.351842    0.316809
      9          1           0       -2.461079   -2.706332    1.219289
     10          8           0       -1.628131    2.138749   -0.887751
     11          1           0       -1.588842    3.093659   -1.059181
     12          8           0        0.849409    1.956380   -0.995801
     13          1           0        1.692489    1.975280   -0.515721
     14          8           0       -0.234961    2.043659    1.381679
     15          8           0       -2.898650   -0.090682    1.548169
     16          6           0        0.327320   -1.041081    0.673939
     17          1           0        0.098921   -2.102351    0.541249
     18          1           0        0.121880   -0.785911    1.717209
     19          6           0        1.791200   -0.805090    0.369059
     20          6           0        2.419240   -1.384280   -0.741641
     21          6           0        2.584730   -0.019260    1.215569
     22          6           0        3.773300   -1.146049   -0.957841
     23          1           0        1.850771   -2.009150   -1.422221
     24          7           0        3.889870    0.223061    1.019999
     25          1           0        2.137930    0.439160    2.096269
     26          6           0        4.463550   -0.335859   -0.054431
     27          1           0        4.289110   -1.580589   -1.807631
     28          1           0        5.522410   -0.130979   -0.198361
 ---------------------------------------------------------------------

 SCF Done:  E(UB3LYP) =  -1537.29814821     A.U. after   35 cycles

 The electronic state is 2-A.
 Alpha  occ. eigenvalues --  -77.26071 -77.25569 -19.22223 -19.22108 -19.21679
 Alpha  occ. eigenvalues --  -19.21304 -19.21296 -19.15705 -19.14496 -14.39736
 Alpha  occ. eigenvalues --  -10.32383 -10.30862 -10.30838 -10.30050 -10.27136
 Alpha  occ. eigenvalues --  -10.26471 -10.26038  -6.70988  -6.70437  -4.87417
 Alpha  occ. eigenvalues --   -4.87275  -4.87135  -4.86886  -4.86730  -4.86569
 Alpha  occ. eigenvalues --   -1.11745  -1.10756  -1.08721  -1.06313  -1.05630
 Alpha  occ. eigenvalues --   -1.01582  -1.00354  -0.99268  -0.89249  -0.85049
 Alpha  occ. eigenvalues --   -0.81111  -0.72758  -0.70058  -0.68318  -0.67249
 Alpha  occ. eigenvalues --   -0.63352  -0.59987  -0.58291  -0.57970  -0.56997
 Alpha  occ. eigenvalues --   -0.55094  -0.54416  -0.51045  -0.49825  -0.48877
 Alpha  occ. eigenvalues --   -0.48371  -0.47575  -0.46368  -0.45923  -0.45541
 Alpha  occ. eigenvalues --   -0.44461  -0.43749  -0.43166  -0.42140  -0.41556
 Alpha  occ. eigenvalues --   -0.40643  -0.39485  -0.38841  -0.38246  -0.37624
 Alpha  occ. eigenvalues --   -0.35316  -0.34425  -0.34310  -0.33302  -0.33021
 Alpha  occ. eigenvalues --   -0.32459  -0.31771  -0.30519
 Alpha virt. eigenvalues --   -0.09394  -0.08878   0.00639   0.01446   0.03071
 Alpha virt. eigenvalues --    0.03433   0.06140   0.06518   0.07593   0.08249
 Alpha virt. eigenvalues --    0.08997   0.09665   0.10638   0.11104   0.12301

  Beta  occ. eigenvalues --  -77.26069 -77.25570 -19.22048 -19.22024 -19.21655
  Beta  occ. eigenvalues --  -19.21304 -19.21293 -19.15556 -19.14476 -14.39835
  Beta  occ. eigenvalues --  -10.32294 -10.30510 -10.30461 -10.29662 -10.26954
  Beta  occ. eigenvalues --  -10.26560 -10.26035  -6.70985  -6.70437  -4.87418
  Beta  occ. eigenvalues --   -4.87279  -4.87120  -4.86887  -4.86732  -4.86568
  Beta  occ. eigenvalues --   -1.11599  -1.10698  -1.08373  -1.06207  -1.05621
  Beta  occ. eigenvalues --   -1.01099  -1.00022  -0.99216  -0.88634  -0.84373
  Beta  occ. eigenvalues --   -0.80367  -0.72404  -0.69485  -0.68058  -0.66922
  Beta  occ. eigenvalues --   -0.63118  -0.59920  -0.58144  -0.57876  -0.56760
  Beta  occ. eigenvalues --   -0.54830  -0.54080  -0.50750  -0.49481  -0.48747
  Beta  occ. eigenvalues --   -0.47882  -0.46834  -0.45941  -0.45748  -0.44742
  Beta  occ. eigenvalues --   -0.44195  -0.43349  -0.42957  -0.42000  -0.41316
  Beta  occ. eigenvalues --   -0.40473  -0.39293  -0.38767  -0.37868  -0.37065
  Beta  occ. eigenvalues --   -0.34914  -0.33960  -0.33151  -0.32848  -0.32463
  Beta  occ. eigenvalues --   -0.31490  -0.29638
  Beta virt. eigenvalues --   -0.26464  -0.07953  -0.06348   0.00797   0.01598
  Beta virt. eigenvalues --    0.03188   0.03598   0.06272   0.07221   0.08112
  Beta virt. eigenvalues --    0.08470   0.09172   0.09754   0.10858   0.11303

 Mulliken charges and spin densities:
               1          2
     1  C   -0.125386   0.048628
     2  O   -0.487558   0.075240
     3  H    0.369703  -0.001488
     4  P    1.141484  -0.000767
     5  P    1.131362   0.002493
     6  O   -0.579123   0.000370
     7  H    0.388107  -0.000141
     8  O   -0.570094   0.001031
     9  H    0.382672  -0.000042
    10  O   -0.569615   0.006369
    11  H    0.389347   0.001413
    12  O   -0.550935   0.020492
    13  H    0.374528  -0.000790
    14  O   -0.541786   0.059741
    15  O   -0.557693   0.008477
    16  C   -0.304752  -0.011228
    17  H    0.216350   0.024239
    18  H    0.200481   0.002265
    19  C    0.099905   0.291586
    20  C   -0.020366  -0.082661
    21  C    0.129837   0.223330
    22  C   -0.052820   0.137997
    23  H    0.185641   0.002158
    24  N   -0.426275  -0.062396
    25  H    0.197696  -0.010141
    26  C    0.189167   0.281528
    27  H    0.192101  -0.005687
    28  H    0.198022  -0.012015
 Sum of Mulliken charges =   1.00000   1.00000

 Dipole moment (field-independent basis, Debye):
    X=              8.9083    Y=             -6.2109    Z=             -5.1942  Tot=             12.0380
 There are a total of      633634 grid points.
 ElSum from          density=      145.0000140011
 ElSum from atomic densities=      146.0000468409
 Hirshfeld populations at iteration   1 (CA, CB, DipXYZ):
               1          2          3          4          5
     1  C    3.007531   2.966672   0.035569  -0.049134  -0.059127
     2  O    4.116922   4.048467  -0.094579   0.052312   0.017377
     3  H    0.411008   0.408668  -0.105673   0.056772  -0.161661
     4  P    7.258157   7.254710  -0.021019  -0.115006  -0.078947
     5  P    7.266011   7.250636   0.002831   0.061099  -0.114012

 Normal termination of Gaussian 16 at Fri Jan 22 02:56:59 2021.
