 Gaussian 16, Revision A.03,
 Gaussian 16:  EM64L-G16RevA.03 25-Dec-2016

 ----------------------------------------------------------------------
 #t B3LYP/6-31G(d,p) scrf=(solvent=water) # Gfinput IOP(6/7=3) Pop=hirs
 hfeld Density Test # Units(Ang,Deg)
 ----------------------------------------------------------------------
 --------------------------
 w-risendronate-opt-g09.log
 --------------------------
 Symbolic Z-matrix:
 Charge =  0 Multiplicity = 1

                         Standard orientation:
 ---------------------------------------------------------------------
 Center     Atomic      Atomic             Coordinates (Angstroms)
 Number     Number       Type             X           Y           Z
 ---------------------------------------------------------------------
      1          6           0       -0.670620   -0.260511   -0.222721
      2          8           0       -0.459220   -0.661611   -1.564661
      3          1           0       -1.187050   -0.317171   -2.106601
      4         15           0       -2.407130   -0.732722    0.300039
      5         15           0       -0.389031    1.579269   -0.024061
      6          8           0       -3.195490   -0.430302   -1.075061
      7          1           0       -3.954310   -1.017282   -1.222631
      8          8           0       -2.425609   -2.351842    0.316809
      9          1           0       -2.461079   -2.706332    1.219289
     10          8           0       -1.628131    2.138749   -0.887751
     11          1           0       -1.588842    3.093659   -1.059181
     12          8           0        0.849409    1.956380   -0.995801
     13          1           0        1.692489    1.975280   -0.515721
     14          8           0       -0.234961    2.043659    1.381679
     15          8           0       -2.898650   -0.090682    1.548169
     16          6           0        0.327320   -1.041081    0.673939
     17          1           0        0.098921   -2.102351    0.541249
     18          1           0        0.121880   -0.785911    1.717209
     19          6           0        1.791200   -0.805090    0.369059
     20          6           0        2.419240   -1.384280   -0.741641
     21          6           0        2.584730   -0.019260    1.215569
     22          6           0        3.773300   -1.146049   -0.957841
     23          1           0        1.850771   -2.009150   -1.422221
     24          7           0        3.889870    0.223061    1.019999
     25          1           0        2.137930    0.439160    2.096269
     26          6           0        4.463550   -0.335859   -0.054431
     27          1           0        4.289110   -1.580589   -1.807631
     28          1           0        5.522410   -0.130979   -0.198361
 ---------------------------------------------------------------------

 SCF Done:  E(RB3LYP) =  -1537.56296862     A.U. after   13 cycles

 The electronic state is 1-A.
 Alpha  occ. eigenvalues --  -77.23742 -77.23303 -19.20099 -19.20047 -19.19828
 Alpha  occ. eigenvalues --  -19.19467 -19.18188 -19.13015 -19.12606 -14.33999
 Alpha  occ. eigenvalues --  -10.28546 -10.22859 -10.22848 -10.21733 -10.21552
 Alpha  occ. eigenvalues --  -10.21106 -10.20316  -6.68637  -6.68204  -4.85103
 Alpha  occ. eigenvalues --   -4.84938  -4.84734  -4.84659  -4.84508  -4.84306
 Alpha  occ. eigenvalues --   -1.09730  -1.08954  -1.05351  -1.04441  -1.04127
 Alpha  occ. eigenvalues --   -0.97951  -0.97420  -0.94709  -0.83100  -0.78996
 Alpha  occ. eigenvalues --   -0.75571  -0.68718  -0.65964  -0.63635  -0.62774
 Alpha  occ. eigenvalues --   -0.59607  -0.57982  -0.56353  -0.54169  -0.52501
 Alpha  occ. eigenvalues --   -0.50908  -0.49032  -0.47576  -0.46970  -0.46009
 Alpha  occ. eigenvalues --   -0.44252  -0.43993  -0.42681  -0.41805  -0.41637
 Alpha  occ. eigenvalues --   -0.40789  -0.40143  -0.39784  -0.39224  -0.38622
 Alpha  occ. eigenvalues --   -0.37554  -0.37470  -0.36604  -0.35438  -0.35045
 Alpha  occ. eigenvalues --   -0.32770  -0.31337  -0.31046  -0.30729  -0.28987
 Alpha  occ. eigenvalues --   -0.27577  -0.26412  -0.26373
 Alpha virt. eigenvalues --   -0.03367  -0.02124   0.02787   0.03527   0.05148
 Alpha virt. eigenvalues --    0.05320   0.08192   0.09813   0.10515   0.10782
 Alpha virt. eigenvalues --    0.11817   0.12073   0.13215   0.13922   0.14423

 Mulliken charges:
               1
     1  C   -0.118978
     2  O   -0.534644
     3  H    0.348951
     4  P    1.119363
     5  P    1.108610
     6  O   -0.583269
     7  H    0.379554
     8  O   -0.576573
     9  H    0.375480
    10  O   -0.580756
    11  H    0.375976
    12  O   -0.570873
    13  H    0.365795
    14  O   -0.586241
    15  O   -0.578071
    16  C   -0.287186
    17  H    0.155867
    18  H    0.154877
    19  C    0.066137
    20  C   -0.066414
    21  C    0.036866
    22  C   -0.104830
    23  H    0.125726
    24  N   -0.469460
    25  H    0.121164
    26  C    0.086354
    27  H    0.119021
    28  H    0.117552
 Sum of Mulliken charges =  -0.00000

 Dipole moment (field-independent basis, Debye):
    X=             -0.9288    Y=             -4.5481    Z=             -5.5438  Tot=              7.2306
 There are a total of      633634 grid points.
 ElSum from          density=      146.0000136691
 ElSum from atomic densities=      146.0000468409
 Hirshfeld populations at iteration   1 (CA, CB, DipXYZ):
               1          2          3          4          5
     1  C    2.994463   2.994463   0.037550  -0.044662  -0.061940
     2  O    4.104553   4.104553  -0.093700   0.065059   0.037553
     3  H    0.418504   0.418504  -0.106404   0.056479  -0.155973
     4  P    7.262359   7.262359  -0.026835  -0.118444  -0.078860
     5  P    7.268605   7.268605   0.011570   0.050681  -0.121864

 Normal termination of Gaussian 16 at Fri Jan 22 02:58:33 2021.
