 Gaussian 16, Revision A.03,
 Gaussian 16:  EM64L-G16RevA.03 25-Dec-2016

 ----------------------------------------------------------------------
 #t B3LYP/6-31G(d,p) scrf=(solvent=water) # Gfinput IOP(6/7=3) Pop=hirs
 hfeld Density Test # Units(Ang,Deg)
 ----------------------------------------------------------------------
 --------------------------
 w-risendronate-opt-g09.log
 --------------------------
 Symbolic Z-matrix:
 Charge = -1 Multiplicity = 2

                         Standard orientation:
 ---------------------------------------------------------------------
 Center     Atomic      Atomic             Coordinates (Angstroms)
 Number     Number       Type             X           Y           Z
 ---------------------------------------------------------------------
      1          6           0       -0.670620   -0.260511   -0.222721
      2          8           0       -0.459220   -0.661611   -1.564661
      3          1           0       -1.187050   -0.317171   -2.106601
      4         15           0       -2.407130   -0.732722    0.300039
      5         15           0       -0.389031    1.579269   -0.024061
      6          8           0       -3.195490   -0.430302   -1.075061
      7          1           0       -3.954310   -1.017282   -1.222631
      8          8           0       -2.425609   -2.351842    0.316809
      9          1           0       -2.461079   -2.706332    1.219289
     10          8           0       -1.628131    2.138749   -0.887751
     11          1           0       -1.588842    3.093659   -1.059181
     12          8           0        0.849409    1.956380   -0.995801
     13          1           0        1.692489    1.975280   -0.515721
     14          8           0       -0.234961    2.043659    1.381679
     15          8           0       -2.898650   -0.090682    1.548169
     16          6           0        0.327320   -1.041081    0.673939
     17          1           0        0.098921   -2.102351    0.541249
     18          1           0        0.121880   -0.785911    1.717209
     19          6           0        1.791200   -0.805090    0.369059
     20          6           0        2.419240   -1.384280   -0.741641
     21          6           0        2.584730   -0.019260    1.215569
     22          6           0        3.773300   -1.146049   -0.957841
     23          1           0        1.850771   -2.009150   -1.422221
     24          7           0        3.889870    0.223061    1.019999
     25          1           0        2.137930    0.439160    2.096269
     26          6           0        4.463550   -0.335859   -0.054431
     27          1           0        4.289110   -1.580589   -1.807631
     28          1           0        5.522410   -0.130979   -0.198361
 ---------------------------------------------------------------------

 SCF Done:  E(UB3LYP) =  -1537.59630263     A.U. after   20 cycles

 The electronic state is 2-A.
 Alpha  occ. eigenvalues --  -77.22608 -77.21967 -19.19355 -19.19274 -19.18966
 Alpha  occ. eigenvalues --  -19.17899 -19.16678 -19.12217 -19.11269 -14.24227
 Alpha  occ. eigenvalues --  -10.26531 -10.18642 -10.16185 -10.15272 -10.14561
 Alpha  occ. eigenvalues --  -10.13724 -10.11382  -6.67538  -6.66846  -4.84007
 Alpha  occ. eigenvalues --   -4.83842  -4.83612  -4.83304  -4.83156  -4.82942
 Alpha  occ. eigenvalues --   -1.08876  -1.07849  -1.04035  -1.03539  -1.02896
 Alpha  occ. eigenvalues --   -0.97170  -0.96156  -0.87369  -0.78542  -0.73283
 Alpha  occ. eigenvalues --   -0.70630  -0.65685  -0.64881  -0.59559  -0.57547
 Alpha  occ. eigenvalues --   -0.56960  -0.55285  -0.55139  -0.52214  -0.49422
 Alpha  occ. eigenvalues --   -0.46763  -0.46226  -0.45771  -0.43211  -0.42696
 Alpha  occ. eigenvalues --   -0.42374  -0.41673  -0.40765  -0.40030  -0.38852
 Alpha  occ. eigenvalues --   -0.37761  -0.37246  -0.36809  -0.36503  -0.36148
 Alpha  occ. eigenvalues --   -0.34963  -0.34111  -0.33615  -0.33410  -0.31513
 Alpha  occ. eigenvalues --   -0.31003  -0.30384  -0.29757  -0.29457  -0.26181
 Alpha  occ. eigenvalues --   -0.23820  -0.21327  -0.19805  -0.03286
 Alpha virt. eigenvalues --    0.02816   0.04206   0.04683   0.06195   0.06519
 Alpha virt. eigenvalues --    0.09297   0.11686   0.11946   0.12221   0.13433
 Alpha virt. eigenvalues --    0.14428   0.14753   0.15375   0.15809   0.16569

  Beta  occ. eigenvalues --  -77.22604 -77.21967 -19.19350 -19.19268 -19.18966
  Beta  occ. eigenvalues --  -19.17878 -19.16675 -19.12214 -19.11254 -14.23518
  Beta  occ. eigenvalues --  -10.26503 -10.18648 -10.16148 -10.15067 -10.14532
  Beta  occ. eigenvalues --  -10.13776 -10.10746  -6.67532  -6.66846  -4.84004
  Beta  occ. eigenvalues --   -4.83839  -4.83605  -4.83303  -4.83156  -4.82942
  Beta  occ. eigenvalues --   -1.08862  -1.07832  -1.04025  -1.03528  -1.02865
  Beta  occ. eigenvalues --   -0.97161  -0.96126  -0.86370  -0.78297  -0.72516
  Beta  occ. eigenvalues --   -0.70265  -0.65473  -0.64864  -0.59403  -0.57192
  Beta  occ. eigenvalues --   -0.56640  -0.55232  -0.54714  -0.52171  -0.49324
  Beta  occ. eigenvalues --   -0.46757  -0.45964  -0.45691  -0.43130  -0.42480
  Beta  occ. eigenvalues --   -0.42256  -0.41607  -0.40611  -0.39937  -0.38814
  Beta  occ. eigenvalues --   -0.37727  -0.37202  -0.36687  -0.36480  -0.36080
  Beta  occ. eigenvalues --   -0.34455  -0.33947  -0.33106  -0.32216  -0.31355
  Beta  occ. eigenvalues --   -0.30888  -0.30310  -0.29673  -0.29387  -0.26132
  Beta  occ. eigenvalues --   -0.20717  -0.19796  -0.18997
  Beta virt. eigenvalues --    0.02983   0.04149   0.04732   0.05354   0.06267
  Beta virt. eigenvalues --    0.06624   0.09446   0.11842   0.12021   0.12304
  Beta virt. eigenvalues --    0.13616   0.14482   0.14816   0.15434   0.15928

 Mulliken charges and spin densities:
               1          2
     1  C   -0.108777  -0.000062
     2  O   -0.535621   0.000188
     3  H    0.338126   0.000918
     4  P    1.102126   0.006585
     5  P    1.086308   0.023041
     6  O   -0.585063   0.000216
     7  H    0.372853   0.001410
     8  O   -0.578401   0.000011
     9  H    0.369276   0.001838
    10  O   -0.584888   0.000039
    11  H    0.369308   0.000341
    12  O   -0.574458   0.000654
    13  H    0.358047   0.002839
    14  O   -0.596351   0.000816
    15  O   -0.587633   0.000182
    16  C   -0.279565   0.000477
    17  H    0.107182   0.013322
    18  H    0.119528  -0.000639
    19  C    0.064714   0.016941
    20  C   -0.202698   0.492077
    21  C   -0.027420   0.032208
    22  C   -0.131453  -0.043118
    23  H    0.015145  -0.026813
    24  N   -0.592690   0.333064
    25  H    0.038487  -0.004125
    26  C   -0.007183   0.158385
    27  H    0.029902  -0.000174
    28  H    0.021198  -0.010620
 Sum of Mulliken charges =  -1.00000   1.00000

 Dipole moment (field-independent basis, Debye):
    X=            -14.0472    Y=             -1.7163    Z=             -5.6680  Tot=             15.2445
 There are a total of      633634 grid points.
 ElSum from          density=      147.0000151062
 ElSum from atomic densities=      146.0000468409
 Hirshfeld populations at iteration   1 (CA, CB, DipXYZ):
               1          2          3          4          5
     1  C    2.999082   2.992616   0.038401  -0.040209  -0.067941
     2  O    4.107708   4.105902  -0.092697   0.068111   0.047206
     3  H    0.422703   0.422081  -0.105224   0.056074  -0.152538
     4  P    7.268682   7.264939  -0.030732  -0.121132  -0.076540
     5  P    7.276723   7.267924   0.004232   0.044694  -0.126782

 Normal termination of Gaussian 16 at Fri Jan 22 02:51:13 2021.
