 Gaussian 16, Revision A.03,
 Gaussian 16:  EM64L-G16RevA.03 25-Dec-2016

 ----------------------------------------------------------------------
 #t B3LYP/6-31G(d,p) scrf=(solvent=water) # Gfinput IOP(6/7=3) Pop=hirs
 hfeld Density Test # Units(Ang,Deg)
 ----------------------------------------------------------------------
 -------------------
 ris-2dp-opt-g09.log
 -------------------
 Symbolic Z-matrix:
 Charge = -1 Multiplicity = 2

                         Standard orientation:
 ---------------------------------------------------------------------
 Center     Atomic      Atomic             Coordinates (Angstroms)
 Number     Number       Type             X           Y           Z
 ---------------------------------------------------------------------
      1          6           0        0.363569   -0.920331   -0.643140
      2          1           0        0.181879   -0.700911   -1.698540
      3          1           0        0.161929   -1.991481   -0.516950
      4          6           0       -0.714271   -0.182191    0.182840
      5          8           0       -0.522551   -0.496581    1.588530
      6          1           0       -0.790820    0.338300    2.033700
      7          6           0        1.822999   -0.683541   -0.319680
      8          6           0        2.383289   -0.956932    0.935850
      9          6           0        2.706959   -0.242452   -1.315960
     10          6           0        3.750969   -0.765392    1.133510
     11          1           0        1.746939   -1.302801    1.741860
     12          7           0        4.023639   -0.062012   -1.150170
     13          1           0        2.317240   -0.021552   -2.309260
     14          6           0        4.528829   -0.320942    0.065920
     15          1           0        4.208869   -0.965722    2.097220
     16          1           0        5.599899   -0.169593    0.187990
     17         15           0       -0.723680    1.695679    0.070960
     18         15           0       -2.402191   -0.900650   -0.262980
     19          8           0       -1.023780    2.125230    1.504210
     20          8           0        0.845170    2.124959   -0.285170
     21          8           0       -1.528410    2.196310   -1.101120
     22          8           0       -3.491571   -0.131860    0.455710
     23          8           0       -2.190401   -2.375930    0.502020
     24          8           0       -2.518621   -1.191820   -1.743920
     25          1           0        1.431860    1.912229    0.454740
     26          1           0       -1.747981   -2.161610    1.342640
 ---------------------------------------------------------------------

 SCF Done:  E(UB3LYP) =  -1536.42548030     A.U. after   31 cycles

 The electronic state is 2-A.
 Alpha  occ. eigenvalues --  -77.20756 -77.19807 -19.22389 -19.17243 -19.17082
 Alpha  occ. eigenvalues --  -19.13333 -19.12203 -19.10886 -19.10325 -14.34306
 Alpha  occ. eigenvalues --  -10.29991 -10.23059 -10.22908 -10.22049 -10.21862
 Alpha  occ. eigenvalues --  -10.21114 -10.20414  -6.65769  -6.64678  -4.82173
 Alpha  occ. eigenvalues --   -4.82105  -4.81888  -4.81110  -4.80998  -4.80821
 Alpha  occ. eigenvalues --   -1.08789  -1.04403  -1.03891  -0.98253  -0.96517
 Alpha  occ. eigenvalues --   -0.94845  -0.94686  -0.92928  -0.83282  -0.79119
 Alpha  occ. eigenvalues --   -0.75775  -0.67430  -0.63687  -0.61214  -0.59509
 Alpha  occ. eigenvalues --   -0.57453  -0.54836  -0.53199  -0.52201  -0.49310
 Alpha  occ. eigenvalues --   -0.47821  -0.46063  -0.45600  -0.44060  -0.42868
 Alpha  occ. eigenvalues --   -0.41889  -0.41209  -0.40763  -0.40365  -0.40012
 Alpha  occ. eigenvalues --   -0.39221  -0.38737  -0.37154  -0.36706  -0.36572
 Alpha  occ. eigenvalues --   -0.34437  -0.33585  -0.32330  -0.31344  -0.30131
 Alpha  occ. eigenvalues --   -0.29759  -0.29103  -0.28656  -0.28259  -0.27810
 Alpha  occ. eigenvalues --   -0.26918  -0.26643  -0.26095
 Alpha virt. eigenvalues --   -0.03298  -0.01913   0.04571   0.06358   0.07745
 Alpha virt. eigenvalues --    0.08351   0.10490   0.11414   0.11905   0.12707
 Alpha virt. eigenvalues --    0.13313   0.14514   0.15765   0.16496   0.16903

  Beta  occ. eigenvalues --  -77.20767 -77.19808 -19.21848 -19.17131 -19.17001
  Beta  occ. eigenvalues --  -19.12813 -19.11821 -19.10782 -19.10179 -14.34252
  Beta  occ. eigenvalues --  -10.29630 -10.23048 -10.22906 -10.22041 -10.21832
  Beta  occ. eigenvalues --  -10.21116 -10.20403  -6.65782  -6.64680  -4.82204
  Beta  occ. eigenvalues --   -4.82078  -4.81917  -4.81120  -4.80981  -4.80828
  Beta  occ. eigenvalues --   -1.07711  -1.03999  -1.03535  -0.97380  -0.96210
  Beta  occ. eigenvalues --   -0.94764  -0.93523  -0.92586  -0.83062  -0.78907
  Beta  occ. eigenvalues --   -0.75295  -0.66823  -0.63625  -0.61023  -0.58683
  Beta  occ. eigenvalues --   -0.56980  -0.54542  -0.52685  -0.51635  -0.49204
  Beta  occ. eigenvalues --   -0.47477  -0.45781  -0.45301  -0.43767  -0.42185
  Beta  occ. eigenvalues --   -0.41604  -0.41027  -0.40566  -0.40005  -0.39519
  Beta  occ. eigenvalues --   -0.38847  -0.38027  -0.36553  -0.36498  -0.34475
  Beta  occ. eigenvalues --   -0.33773  -0.32514  -0.31825  -0.30574  -0.29380
  Beta  occ. eigenvalues --   -0.28716  -0.27877  -0.27659  -0.27227  -0.26522
  Beta  occ. eigenvalues --   -0.26283  -0.26013
  Beta virt. eigenvalues --   -0.21578  -0.03248  -0.01866   0.05021   0.06681
  Beta virt. eigenvalues --    0.08087   0.08668   0.10710   0.11947   0.12073
  Beta virt. eigenvalues --    0.12910   0.13655   0.14787   0.16029   0.16624

 Mulliken charges and spin densities:
               1          2
     1  C   -0.259768  -0.000853
     2  H    0.157801   0.000482
     3  H    0.163349   0.011071
     4  C   -0.165815   0.217210
     5  O   -0.478733   0.195810
     6  H    0.360329  -0.004177
     7  C    0.074385   0.014393
     8  C   -0.082286  -0.001849
     9  C    0.069782   0.003489
    10  C   -0.102623   0.007178
    11  H    0.131687   0.001111
    12  N   -0.466519   0.025237
    13  H    0.115350   0.000184
    14  C    0.087157  -0.000678
    15  H    0.120538  -0.000205
    16  H    0.120296   0.001493
    17  P    1.040358   0.001901
    18  P    1.074659  -0.001865
    19  O   -0.671409   0.041076
    20  O   -0.585001   0.027878
    21  O   -0.625707   0.060662
    22  O   -0.586742   0.153447
    23  O   -0.613950   0.040592
    24  O   -0.570588   0.209615
    25  H    0.343889  -0.000589
    26  H    0.349562  -0.002612
 Sum of Mulliken charges =  -1.00000   1.00000

 Dipole moment (field-independent basis, Debye):
    X=             14.1126    Y=             -6.7624    Z=              6.2029  Tot=             16.8337
 There are a total of      588212 grid points.
 ElSum from          density=      145.0000298857
 ElSum from atomic densities=      144.0000484966
 Hirshfeld populations at iteration   1 (CA, CB, DipXYZ):
               1          2          3          4          5
     1  C    3.029551   3.013109   0.030014   0.006838   0.006786
     2  H    0.475249   0.473959  -0.007071   0.022729  -0.147675
     3  H    0.478798   0.471217  -0.001867  -0.147112   0.007158
     4  C    3.058791   2.894412   0.037906  -0.046750   0.056144
     5  O    4.152797   3.970472  -0.039699   0.070120  -0.020021

 Normal termination of Gaussian 16 at Mon Feb  8 14:50:35 2021.
