 Gaussian 16, Revision A.03,
 Gaussian 16:  EM64L-G16RevA.03 25-Dec-2016

 ----------------------------------------------------------------------
 #t B3LYP/6-31G(d,p) scrf=(solvent=water) # Gfinput IOP(6/7=3) Pop=hirs
 hfeld Density Test # Units(Ang,Deg)
 ----------------------------------------------------------------------
 -------------------
 ris-2dp-opt-g09.log
 -------------------
 Symbolic Z-matrix:
 Charge = -2 Multiplicity = 1

                         Standard orientation:
 ---------------------------------------------------------------------
 Center     Atomic      Atomic             Coordinates (Angstroms)
 Number     Number       Type             X           Y           Z
 ---------------------------------------------------------------------
      1          6           0        0.363569   -0.920331   -0.643140
      2          1           0        0.181879   -0.700911   -1.698540
      3          1           0        0.161929   -1.991481   -0.516950
      4          6           0       -0.714271   -0.182191    0.182840
      5          8           0       -0.522551   -0.496581    1.588530
      6          1           0       -0.790820    0.338300    2.033700
      7          6           0        1.822999   -0.683541   -0.319680
      8          6           0        2.383289   -0.956932    0.935850
      9          6           0        2.706959   -0.242452   -1.315960
     10          6           0        3.750969   -0.765392    1.133510
     11          1           0        1.746939   -1.302801    1.741860
     12          7           0        4.023639   -0.062012   -1.150170
     13          1           0        2.317240   -0.021552   -2.309260
     14          6           0        4.528829   -0.320942    0.065920
     15          1           0        4.208869   -0.965722    2.097220
     16          1           0        5.599899   -0.169593    0.187990
     17         15           0       -0.723680    1.695679    0.070960
     18         15           0       -2.402191   -0.900650   -0.262980
     19          8           0       -1.023780    2.125230    1.504210
     20          8           0        0.845170    2.124959   -0.285170
     21          8           0       -1.528410    2.196310   -1.101120
     22          8           0       -3.491571   -0.131860    0.455710
     23          8           0       -2.190401   -2.375930    0.502020
     24          8           0       -2.518621   -1.191820   -1.743920
     25          1           0        1.431860    1.912229    0.454740
     26          1           0       -1.747981   -2.161610    1.342640
 ---------------------------------------------------------------------

 SCF Done:  E(RB3LYP) =  -1536.63933959     A.U. after   13 cycles

 The electronic state is 1-A.
 Alpha  occ. eigenvalues --  -77.15389 -77.14054 -19.13706 -19.13391 -19.12130
 Alpha  occ. eigenvalues --  -19.06818 -19.06238 -19.05351 -19.05151 -14.32724
 Alpha  occ. eigenvalues --  -10.21557 -10.21455 -10.21371 -10.19682 -10.19427
 Alpha  occ. eigenvalues --  -10.19138 -10.18143  -6.60235  -6.58915  -4.76727
 Alpha  occ. eigenvalues --   -4.76457  -4.76420  -4.75411  -4.75139  -4.75088
 Alpha  occ. eigenvalues --   -1.01558  -1.00195  -0.98393  -0.93356  -0.92735
 Alpha  occ. eigenvalues --   -0.91615  -0.89006  -0.87598  -0.80594  -0.76851
 Alpha  occ. eigenvalues --   -0.71768  -0.63109  -0.62080  -0.58210  -0.54607
 Alpha  occ. eigenvalues --   -0.51677  -0.50973  -0.50006  -0.47856  -0.46479
 Alpha  occ. eigenvalues --   -0.44681  -0.42508  -0.41051  -0.40901  -0.39142
 Alpha  occ. eigenvalues --   -0.38350  -0.37861  -0.37734  -0.36914  -0.35710
 Alpha  occ. eigenvalues --   -0.35050  -0.34333  -0.33241  -0.32814  -0.30115
 Alpha  occ. eigenvalues --   -0.29954  -0.28288  -0.27650  -0.27424  -0.26288
 Alpha  occ. eigenvalues --   -0.25575  -0.25284  -0.24544  -0.23918  -0.23393
 Alpha  occ. eigenvalues --   -0.23008  -0.21742  -0.21140
 Alpha virt. eigenvalues --   -0.01816  -0.00339   0.08549   0.10362   0.11533
 Alpha virt. eigenvalues --    0.11983   0.12572   0.13908   0.14470   0.16352
 Alpha virt. eigenvalues --    0.17119   0.17836   0.18001   0.19260   0.19954

 Mulliken charges:
               1
     1  C   -0.243858
     2  H    0.114805
     3  H    0.114113
     4  C   -0.167587
     5  O   -0.601060
     6  H    0.321951
     7  C    0.090028
     8  C   -0.090465
     9  C    0.051304
    10  C   -0.109335
    11  H    0.116050
    12  N   -0.480064
    13  H    0.097487
    14  C    0.073917
    15  H    0.105582
    16  H    0.104036
    17  P    0.977270
    18  P    0.967523
    19  O   -0.720401
    20  O   -0.613375
    21  O   -0.687196
    22  O   -0.700672
    23  O   -0.660871
    24  O   -0.706950
    25  H    0.325050
    26  H    0.322718
 Sum of Mulliken charges =  -2.00000

 Dipole moment (field-independent basis, Debye):
    X=             19.3674    Y=             -5.7540    Z=              6.1221  Tot=             21.1112
 There are a total of      588212 grid points.
 ElSum from          density=      146.0000297529
 ElSum from atomic densities=      144.0000484966
 Hirshfeld populations at iteration   1 (CA, CB, DipXYZ):
               1          2          3          4          5
     1  C    3.028348   3.028348   0.029623   0.012822   0.015139
     2  H    0.484048   0.484048  -0.006848   0.024544  -0.132534
     3  H    0.485490   0.485490  -0.003394  -0.130251   0.010485
     4  C    3.005984   3.005984   0.060285  -0.041511   0.062309
     5  O    4.117278   4.117278  -0.046057   0.087563  -0.069471

 Normal termination of Gaussian 16 at Mon Feb  8 14:53:33 2021.
