 Gaussian 16, Revision A.03,
 Gaussian 16:  EM64L-G16RevA.03 25-Dec-2016

 ----------------------------------------------------------------------
 #t B3LYP/6-31G(d,p) scrf=(solvent=water) # Gfinput IOP(6/7=3) Pop=hirs
 hfeld Density Test # Units(Ang,Deg)
 ----------------------------------------------------------------------
 -------------------
 ris-2dp-opt-g09.log
 -------------------
 Symbolic Z-matrix:
 Charge = -3 Multiplicity = 2

                         Standard orientation:
 ---------------------------------------------------------------------
 Center     Atomic      Atomic             Coordinates (Angstroms)
 Number     Number       Type             X           Y           Z
 ---------------------------------------------------------------------
      1          6           0        0.363569   -0.920331   -0.643140
      2          1           0        0.181879   -0.700911   -1.698540
      3          1           0        0.161929   -1.991481   -0.516950
      4          6           0       -0.714271   -0.182191    0.182840
      5          8           0       -0.522551   -0.496581    1.588530
      6          1           0       -0.790820    0.338300    2.033700
      7          6           0        1.822999   -0.683541   -0.319680
      8          6           0        2.383289   -0.956932    0.935850
      9          6           0        2.706959   -0.242452   -1.315960
     10          6           0        3.750969   -0.765392    1.133510
     11          1           0        1.746939   -1.302801    1.741860
     12          7           0        4.023639   -0.062012   -1.150170
     13          1           0        2.317240   -0.021552   -2.309260
     14          6           0        4.528829   -0.320942    0.065920
     15          1           0        4.208869   -0.965722    2.097220
     16          1           0        5.599899   -0.169593    0.187990
     17         15           0       -0.723680    1.695679    0.070960
     18         15           0       -2.402191   -0.900650   -0.262980
     19          8           0       -1.023780    2.125230    1.504210
     20          8           0        0.845170    2.124959   -0.285170
     21          8           0       -1.528410    2.196310   -1.101120
     22          8           0       -3.491571   -0.131860    0.455710
     23          8           0       -2.190401   -2.375930    0.502020
     24          8           0       -2.518621   -1.191820   -1.743920
     25          1           0        1.431860    1.912229    0.454740
     26          1           0       -1.747981   -2.161610    1.342640
 ---------------------------------------------------------------------

 SCF Done:  E(UB3LYP) =  -1536.65705520     A.U. after   22 cycles

 The electronic state is 2-A.
 Alpha  occ. eigenvalues --  -77.14364 -77.13155 -19.12307 -19.11872 -19.11423
 Alpha  occ. eigenvalues --  -19.05986 -19.05485 -19.04672 -19.04464 -14.22728
 Alpha  occ. eigenvalues --  -10.19704 -10.15160 -10.14312 -10.14014 -10.12592
 Alpha  occ. eigenvalues --  -10.12418 -10.09728  -6.59208  -6.58031  -4.75696
 Alpha  occ. eigenvalues --   -4.75427  -4.75400  -4.74532  -4.74240  -4.74208
 Alpha  occ. eigenvalues --   -1.00279  -0.99055  -0.97333  -0.91839  -0.90941
 Alpha  occ. eigenvalues --   -0.88236  -0.86942  -0.85858  -0.74908  -0.70880
 Alpha  occ. eigenvalues --   -0.67246  -0.59287  -0.55782  -0.53920  -0.52693
 Alpha  occ. eigenvalues --   -0.50651  -0.48399  -0.45818  -0.44716  -0.41209
 Alpha  occ. eigenvalues --   -0.40749  -0.40043  -0.38800  -0.37207  -0.36717
 Alpha  occ. eigenvalues --   -0.36125  -0.34385  -0.33915  -0.33714  -0.32929
 Alpha  occ. eigenvalues --   -0.32513  -0.32165  -0.31792  -0.29178  -0.28821
 Alpha  occ. eigenvalues --   -0.28479  -0.27315  -0.26617  -0.25553  -0.24375
 Alpha  occ. eigenvalues --   -0.23455  -0.22699  -0.22546  -0.22261  -0.21126
 Alpha  occ. eigenvalues --   -0.20223  -0.19325  -0.18301  -0.01702
 Alpha virt. eigenvalues --    0.05316   0.09793   0.11823   0.12648   0.13499
 Alpha virt. eigenvalues --    0.14902   0.16036   0.17728   0.18208   0.18779
 Alpha virt. eigenvalues --    0.19293   0.20289   0.21429   0.21740   0.21969

  Beta  occ. eigenvalues --  -77.14364 -77.13154 -19.12300 -19.11865 -19.11422
  Beta  occ. eigenvalues --  -19.05986 -19.05485 -19.04671 -19.04463 -14.21992
  Beta  occ. eigenvalues --  -10.19692 -10.15167 -10.14177 -10.13884 -10.12576
  Beta  occ. eigenvalues --  -10.12433 -10.09108  -6.59208  -6.58031  -4.75696
  Beta  occ. eigenvalues --   -4.75427  -4.75400  -4.74531  -4.74240  -4.74208
  Beta  occ. eigenvalues --   -1.00271  -0.99049  -0.97326  -0.91836  -0.90939
  Beta  occ. eigenvalues --   -0.88235  -0.86941  -0.84809  -0.74480  -0.70167
  Beta  occ. eigenvalues --   -0.66857  -0.59089  -0.54953  -0.53803  -0.52432
  Beta  occ. eigenvalues --   -0.50619  -0.48366  -0.45748  -0.44416  -0.41096
  Beta  occ. eigenvalues --   -0.40469  -0.39846  -0.38700  -0.37152  -0.36677
  Beta  occ. eigenvalues --   -0.36076  -0.34305  -0.33767  -0.33611  -0.32434
  Beta  occ. eigenvalues --   -0.32160  -0.31621  -0.30930  -0.29007  -0.28700
  Beta  occ. eigenvalues --   -0.28298  -0.27290  -0.26584  -0.25541  -0.24318
  Beta  occ. eigenvalues --   -0.23422  -0.22689  -0.22405  -0.21121  -0.20137
  Beta  occ. eigenvalues --   -0.19182  -0.17790  -0.17543
  Beta virt. eigenvalues --    0.05786   0.06845   0.09831   0.11860   0.12757
  Beta virt. eigenvalues --    0.13523   0.14999   0.16067   0.18144   0.18522
  Beta virt. eigenvalues --    0.18864   0.20250   0.20498   0.21502   0.21822

 Mulliken charges and spin densities:
               1          2
     1  C   -0.236500   0.002265
     2  H    0.079112  -0.000213
     3  H    0.066109   0.010073
     4  C   -0.162048   0.003264
     5  O   -0.599950   0.001228
     6  H    0.312681   0.000298
     7  C    0.102399   0.001672
     8  C   -0.233730   0.487090
     9  C   -0.039621   0.097937
    10  C   -0.140400  -0.014923
    11  H    0.008846  -0.026470
    12  N   -0.605617   0.348007
    13  H    0.000850  -0.007497
    14  C   -0.009514   0.105087
    15  H    0.012915  -0.001570
    16  H    0.008118  -0.008002
    17  P    0.964743   0.001509
    18  P    0.954852  -0.000054
    19  O   -0.728800   0.000186
    20  O   -0.611196   0.001773
    21  O   -0.696581  -0.000237
    22  O   -0.708707   0.000135
    23  O   -0.664312   0.000062
    24  O   -0.713458  -0.000021
    25  H    0.320937  -0.001671
    26  H    0.318871   0.000072
 Sum of Mulliken charges =  -3.00000   1.00000

 Dipole moment (field-independent basis, Debye):
    X=              5.6671    Y=             -3.2640    Z=              6.1950  Tot=              9.0082
 There are a total of      588212 grid points.
 ElSum from          density=      147.0000311316
 ElSum from atomic densities=      144.0000484966
 Hirshfeld populations at iteration   1 (CA, CB, DipXYZ):
               1          2          3          4          5
     1  C    3.039486   3.030324   0.015446   0.022173   0.026372
     2  H    0.493365   0.491736  -0.007007   0.023781  -0.119341
     3  H    0.499610   0.493134  -0.002337  -0.113160   0.009894
     4  C    3.008541   3.005088   0.061755  -0.037361   0.066203
     5  O    4.121114   4.118532  -0.044108   0.089336  -0.078676

 Normal termination of Gaussian 16 at Mon Feb  8 14:45:44 2021.
