 Gaussian 16, Revision A.03,
 Gaussian 16:  ES64L-G16RevA.03 25-Dec-2016

 ----------------------------------------------------------------------
 #t B3LYP/LANL2DZ # SCRF=(Solvent=Ethanol) # Gfinput IOP(6/7=3) Pop=hir
 shfeld Density Test # Units(Ang,Deg)
 ----------------------------------------------------------------------
 ----------
 3-tio2.pdb
 ----------
 Symbolic Z-matrix:
 Charge =  0 Multiplicity = 1

                         Standard orientation:
 ---------------------------------------------------------------------
 Center     Atomic      Atomic             Coordinates (Angstroms)
 Number     Number       Type             X           Y           Z
 ---------------------------------------------------------------------
      1         22           0        0.324101   -0.000009    0.051399
      2         22           0        3.067841   -0.000006   -0.374371
      3          8           0        1.657502   -1.232348   -0.158651
      4          8           0        1.657490    1.232342   -0.158621
      5          8           0       -1.108389    0.000029    1.274919
      6          8           0       -1.034969   -0.000010   -1.186111
      7          8           0        3.938241    0.000015    1.028669
      8         22           0       -2.451779    0.000008    0.027779
      9          8           0       -3.360658   -1.530413    0.004959
     10          1           0       -3.895987   -2.336203    0.007019
     11          8           0       -3.360861    1.530277    0.004799
     12          1           0       -3.894442    2.337217    0.007489
 ---------------------------------------------------------------------

 SCF Done:  E(RB3LYP) =  -702.721872613     A.U. after   20 cycles

 The electronic state is 1-A.
 Alpha  occ. eigenvalues --  -19.14361 -19.14360 -19.14146 -19.13809 -19.13809
 Alpha  occ. eigenvalues --  -19.13653 -19.12450  -2.46338  -2.45703  -2.44824
 Alpha  occ. eigenvalues --   -1.59645  -1.58683  -1.58222  -1.58000  -1.57582
 Alpha  occ. eigenvalues --   -1.57500  -1.57348  -1.56709  -1.56542  -0.97270
 Alpha  occ. eigenvalues --   -0.96646  -0.92959  -0.91344  -0.90970  -0.90704
 Alpha  occ. eigenvalues --   -0.87164  -0.51841  -0.50865  -0.40751  -0.39562
 Alpha  occ. eigenvalues --   -0.39279  -0.38117  -0.37263  -0.36844  -0.36701
 Alpha  occ. eigenvalues --   -0.36292  -0.36239  -0.34981  -0.34384  -0.34137
 Alpha  occ. eigenvalues --   -0.32946  -0.32826  -0.31695  -0.31502  -0.30812
 Alpha  occ. eigenvalues --   -0.29822  -0.29101
 Alpha virt. eigenvalues --   -0.09774  -0.08879  -0.07476  -0.06609  -0.06068
 Alpha virt. eigenvalues --   -0.05338  -0.04136  -0.04090  -0.03114  -0.02089
 Alpha virt. eigenvalues --   -0.01664  -0.01062  -0.00548  -0.00233   0.00174

 Mulliken charges:
               1
     1  Ti   1.430190
     2  Ti   1.359803
     3  O   -0.734392
     4  O   -0.734395
     5  O   -0.724101
     6  O   -0.731280
     7  O   -0.517507
     8  Ti   1.333993
     9  O   -0.765800
    10  H    0.424629
    11  O   -0.765775
    12  H    0.424635
 Sum of Mulliken charges =  -0.00000

 Dipole moment (field-independent basis, Debye):
    X=              0.3344    Y=              0.0033    Z=             -6.1101  Tot=              6.1193
 StAtR1:  DoIntr=F IAtCor=3 NETot=      94 Failed=F Sum=  3.00D+01 SumC=  0.00D+00
 There are a total of      307336 grid points.
 ElSum from          density=       94.0000076484
 ElSum from atomic densities=      124.0000402952

 Hirshfeld populations at iteration   1 (CX, CA, CB, DipXYZ):
               1          2          3          4          5          6
     1  Ti   0.000000   5.643719   5.643719   0.036281  -0.000021   0.188216
     2  Ti   0.000045   5.503007   5.503007   0.730141  -0.000005  -1.162821
     3  O    0.000017   4.206929   4.206929   0.004036   0.101757  -0.007618

 Normal termination of Gaussian 16 at Mon Jun  7 11:55:34 2021.
