 Gaussian 16, Revision A.03,
 Gaussian 16:  ES64L-G16RevA.03 25-Dec-2016

 ----------------------------------------------------------------------
 #t B3LYP/LANL2DZ # SCRF=(Solvent=Ethanol) # Gfinput IOP(6/7=3) Pop=hir
 shfeld Density Test # Units(Ang,Deg)
 ----------------------------------------------------------------------
 ----------
 3-tio2.pdb
 ----------
 Symbolic Z-matrix:
 Charge = -1 Multiplicity = 2

                         Standard orientation:
 ---------------------------------------------------------------------
 Center     Atomic      Atomic             Coordinates (Angstroms)
 Number     Number       Type             X           Y           Z
 ---------------------------------------------------------------------
      1         22           0        0.324101   -0.000009    0.051399
      2         22           0        3.067841   -0.000006   -0.374371
      3          8           0        1.657502   -1.232348   -0.158651
      4          8           0        1.657490    1.232342   -0.158621
      5          8           0       -1.108389    0.000029    1.274919
      6          8           0       -1.034969   -0.000010   -1.186111
      7          8           0        3.938241    0.000015    1.028669
      8         22           0       -2.451779    0.000008    0.027779
      9          8           0       -3.360658   -1.530413    0.004959
     10          1           0       -3.895987   -2.336203    0.007019
     11          8           0       -3.360861    1.530277    0.004799
     12          1           0       -3.894442    2.337217    0.007489
 ---------------------------------------------------------------------

 SCF Done:  E(UB3LYP) =  -702.825360475     A.U. after   31 cycles

 The electronic state is 2-A.
 Alpha  occ. eigenvalues --  -19.11573 -19.11572 -19.09114 -19.08866 -19.08499
 Alpha  occ. eigenvalues --  -19.08499 -19.07527  -2.41127  -2.38599  -2.37836
 Alpha  occ. eigenvalues --   -1.53959  -1.53778  -1.52829  -1.51964  -1.51415
 Alpha  occ. eigenvalues --   -1.50595  -1.50239  -1.50004  -1.49928  -0.94753
 Alpha  occ. eigenvalues --   -0.94137  -0.87994  -0.86420  -0.85755  -0.85714
 Alpha  occ. eigenvalues --   -0.82666  -0.49156  -0.48060  -0.36258  -0.34489
 Alpha  occ. eigenvalues --   -0.34132  -0.33718  -0.33244  -0.32869  -0.32583
 Alpha  occ. eigenvalues --   -0.32405  -0.32150  -0.31092  -0.30629  -0.30605
 Alpha  occ. eigenvalues --   -0.29243  -0.28717  -0.27816  -0.27572  -0.26694
 Alpha  occ. eigenvalues --   -0.25635  -0.24816  -0.10844
 Alpha virt. eigenvalues --   -0.05301  -0.02580  -0.02526  -0.01257  -0.00904
 Alpha virt. eigenvalues --   -0.00302  -0.00039   0.00466   0.01548   0.01900
 Alpha virt. eigenvalues --    0.02043   0.02252   0.02388   0.02521   0.03187

  Beta  occ. eigenvalues --  -19.11590 -19.11589 -19.09160 -19.08906 -19.08580
  Beta  occ. eigenvalues --  -19.08580 -19.07592  -2.40133  -2.37237  -2.35893
  Beta  occ. eigenvalues --   -1.53265  -1.53050  -1.51389  -1.51127  -1.50408
  Beta  occ. eigenvalues --   -1.48886  -1.48503  -1.47579  -1.46861  -0.94772
  Beta  occ. eigenvalues --   -0.94154  -0.88105  -0.86500  -0.85861  -0.85858
  Beta  occ. eigenvalues --   -0.82786  -0.49048  -0.48015  -0.35961  -0.34515
  Beta  occ. eigenvalues --   -0.34161  -0.33459  -0.33232  -0.32791  -0.32470
  Beta  occ. eigenvalues --   -0.32217  -0.31930  -0.31121  -0.30618  -0.30476
  Beta  occ. eigenvalues --   -0.29224  -0.28646  -0.27688  -0.27650  -0.26751
  Beta  occ. eigenvalues --   -0.25696  -0.24951
  Beta virt. eigenvalues --   -0.02682  -0.02201  -0.02146  -0.00918  -0.00617
  Beta virt. eigenvalues --   -0.00125   0.00136   0.00140   0.01363   0.01914
  Beta virt. eigenvalues --    0.02182   0.02498   0.02548   0.02637   0.03390

 Mulliken charges and spin densities:
               1          2
     1  Ti   1.202651   0.513968
     2  Ti   1.133325   0.360443
     3  O   -0.783651  -0.034589
     4  O   -0.783654  -0.034590
     5  O   -0.764964  -0.021692
     6  O   -0.771934  -0.024486
     7  O   -0.603958  -0.024630
     8  Ti   1.159941   0.272543
     9  O   -0.798079  -0.004767
    10  H    0.404186   0.001280
    11  O   -0.798057  -0.004760
    12  H    0.404194   0.001280
 Sum of Mulliken charges =  -1.00000   1.00000

 Dipole moment (field-independent basis, Debye):
    X=             -1.7941    Y=              0.0033    Z=             -6.3156  Tot=              6.5655
 StAtR1:  DoIntr=F IAtCor=3 NETot=      94 Failed=F Sum=  3.00D+01 SumC=  0.00D+00
 There are a total of      307336 grid points.
 ElSum from          density=       95.0000114275
 ElSum from atomic densities=      124.0000402952

 Hirshfeld populations at iteration   1 (CX, CA, CB, DipXYZ):
               1          2          3          4          5          6
     1  Ti   0.000000   5.973272   5.519873   0.012537  -0.000021   0.171516
     2  Ti   0.000056   5.766594   5.438144   0.674030  -0.000007  -1.180106
     3  O    0.000020   4.236800   4.244085  -0.002158   0.142110  -0.003432

 Normal termination of Gaussian 16 at Mon Jun  7 11:57:53 2021.
