 Gaussian 16, Revision A.03,
 Gaussian 16:  ES64L-G16RevA.03 25-Dec-2016

 ----------------------------------------------------------------------
 #P B3LYP/LANL2DZ # Opt # SCRF=(Solvent=Ethanol) # Gfinput IOP(6/7=3) P
 op=Full Density Test # Units(Ang,Deg)
 ----------------------------------------------------------------------

 ----------
 3-tio2.pdb
 ----------
 Symbolic Z-matrix:
 Charge =  0 Multiplicity = 1

 SCF Done:  E(RB3LYP) =  -702.661271043     A.U. after   19 cycles
 SCF Done:  E(RB3LYP) =  -702.681624896     A.U. after   15 cycles
 SCF Done:  E(RB3LYP) =  -702.692418224     A.U. after   15 cycles
 SCF Done:  E(RB3LYP) =  -702.701567648     A.U. after   14 cycles
 SCF Done:  E(RB3LYP) =  -702.708547006     A.U. after   15 cycles
 SCF Done:  E(RB3LYP) =  -702.714520353     A.U. after   16 cycles
 SCF Done:  E(RB3LYP) =  -702.719553949     A.U. after   15 cycles
 SCF Done:  E(RB3LYP) =  -702.720589178     A.U. after   14 cycles
 SCF Done:  E(RB3LYP) =  -702.721093984     A.U. after   13 cycles
 SCF Done:  E(RB3LYP) =  -702.721239678     A.U. after   12 cycles
 SCF Done:  E(RB3LYP) =  -702.721869922     A.U. after   11 cycles
 SCF Done:  E(RB3LYP) =  -702.721872904     A.U. after   10 cycles
 SCF Done:  E(RB3LYP) =  -702.721874324     A.U. after   10 cycles
 SCF Done:  E(RB3LYP) =  -702.721872567     A.U. after   10 cycles
 SCF Done:  E(RB3LYP) =  -702.721872444     A.U. after    8 cycles
 SCF Done:  E(RB3LYP) =  -702.721874296     A.U. after   10 cycles
 SCF Done:  E(RB3LYP) =  -702.721872432     A.U. after   10 cycles
 SCF Done:  E(RB3LYP) =  -702.721872543     A.U. after    8 cycles
 SCF Done:  E(RB3LYP) =  -702.721874311     A.U. after   10 cycles
 SCF Done:  E(RB3LYP) =  -702.721872613     A.U. after   10 cycles
 Optimization completed.
    -- Stationary point found.

                         Standard orientation:
 ---------------------------------------------------------------------
 Center     Atomic      Atomic             Coordinates (Angstroms)
 Number     Number       Type             X           Y           Z
 ---------------------------------------------------------------------
      1         22           0        0.324104   -0.000005    0.051397
      2         22           0        3.067841   -0.000007   -0.374370
      3          8           0        1.657501   -1.232346   -0.158655
      4          8           0        1.657494    1.232337   -0.158621
      5          8           0       -1.108390    0.000028    1.274917
      6          8           0       -1.034968   -0.000005   -1.186109
      7          8           0        3.938241    0.000011    1.028673
      8         22           0       -2.451782    0.000005    0.027781
      9          8           0       -3.360664   -1.530412    0.004959
     10          1           0       -3.895990   -2.336201    0.007015
     11          8           0       -3.360857    1.530279    0.004801
     12          1           0       -3.894438    2.337220    0.007492
 ---------------------------------------------------------------------

 The electronic state is 1-A.
 Alpha  occ. eigenvalues --  -19.14361 -19.14360 -19.14146 -19.13809 -19.13809
 Alpha  occ. eigenvalues --  -19.13652 -19.12450  -2.46338  -2.45703  -2.44824
 Alpha  occ. eigenvalues --   -1.59645  -1.58683  -1.58222  -1.58000  -1.57582
 Alpha  occ. eigenvalues --   -1.57500  -1.57348  -1.56709  -1.56542  -0.97270
 Alpha  occ. eigenvalues --   -0.96646  -0.92959  -0.91344  -0.90971  -0.90704
 Alpha  occ. eigenvalues --   -0.87164  -0.51841  -0.50865  -0.40751  -0.39562
 Alpha  occ. eigenvalues --   -0.39279  -0.38117  -0.37263  -0.36844  -0.36701
 Alpha  occ. eigenvalues --   -0.36292  -0.36239  -0.34981  -0.34384  -0.34137
 Alpha  occ. eigenvalues --   -0.32946  -0.32826  -0.31695  -0.31502  -0.30812
 Alpha  occ. eigenvalues --   -0.29822  -0.29101
 Alpha virt. eigenvalues --   -0.09774  -0.08879  -0.07476  -0.06609  -0.06068
 Alpha virt. eigenvalues --   -0.05338  -0.04136  -0.04090  -0.03114  -0.02089
 Alpha virt. eigenvalues --   -0.01664  -0.01062  -0.00548  -0.00233   0.00175

 Mulliken charges:
               1
     1  Ti   1.430192
     2  Ti   1.359802
     3  O   -0.734392
     4  O   -0.734393
     5  O   -0.724101
     6  O   -0.731281
     7  O   -0.517510
     8  Ti   1.333994
     9  O   -0.765799
    10  H    0.424628
    11  O   -0.765775
    12  H    0.424636
 Sum of Mulliken charges =  -0.00000

 Dipole moment (field-independent basis, Debye):
    X=              0.3344    Y=              0.0034    Z=             -6.1101  Tot=              6.1193
 Quadrupole moment (field-independent basis, Debye-Ang):
   XX=            -59.8449   YY=            -83.5187   ZZ=            -92.0250
   XY=             -0.0025   XZ=            -25.2001   YZ=              0.0038

 Normal termination of Gaussian 16 at Mon Jun  7 11:51:45 2021.
