 Gaussian 16, Revision A.03,
 Gaussian 16:  ES64L-G16RevA.03 25-Dec-2016

 ----------------------------------------------------------------------
 #t B3LYP/LANL2DZ # SCRF=(Solvent=Ethanol) # Gfinput IOP(6/7=3) Pop=hir
 shfeld Density Test # Units(Ang,Deg)
 ----------------------------------------------------------------------
 ----------
 3-tio2.pdb
 ----------
 Symbolic Z-matrix:
 Charge =  1 Multiplicity = 2

                         Standard orientation:
 ---------------------------------------------------------------------
 Center     Atomic      Atomic             Coordinates (Angstroms)
 Number     Number       Type             X           Y           Z
 ---------------------------------------------------------------------
      1         22           0        0.324101   -0.000009    0.051399
      2         22           0        3.067841   -0.000006   -0.374371
      3          8           0        1.657502   -1.232348   -0.158651
      4          8           0        1.657490    1.232342   -0.158621
      5          8           0       -1.108389    0.000029    1.274919
      6          8           0       -1.034969   -0.000010   -1.186111
      7          8           0        3.938241    0.000015    1.028669
      8         22           0       -2.451779    0.000008    0.027779
      9          8           0       -3.360658   -1.530413    0.004959
     10          1           0       -3.895987   -2.336203    0.007019
     11          8           0       -3.360861    1.530277    0.004799
     12          1           0       -3.894442    2.337217    0.007489
 ---------------------------------------------------------------------

 SCF Done:  E(UB3LYP) =  -702.427706272     A.U. after   41 cycles

 The electronic state is 2-A.
 Alpha  occ. eigenvalues --  -19.22115 -19.20289 -19.20288 -19.19221 -19.18860
 Alpha  occ. eigenvalues --  -19.16738 -19.16737  -2.50967  -2.50202  -2.49383
 Alpha  occ. eigenvalues --   -1.64383  -1.63552  -1.62571  -1.62568  -1.61960
 Alpha  occ. eigenvalues --   -1.61856  -1.61595  -1.61428  -1.60951  -0.99527
 Alpha  occ. eigenvalues --   -0.98849  -0.98788  -0.97453  -0.96978  -0.96422
 Alpha  occ. eigenvalues --   -0.96007  -0.53979  -0.53061  -0.46191  -0.45309
 Alpha  occ. eigenvalues --   -0.44662  -0.43436  -0.43100  -0.42103  -0.41713
 Alpha  occ. eigenvalues --   -0.41228  -0.40758  -0.40484  -0.40165  -0.39402
 Alpha  occ. eigenvalues --   -0.37742  -0.37527  -0.37034  -0.36855  -0.34858
 Alpha  occ. eigenvalues --   -0.34315  -0.33771
 Alpha virt. eigenvalues --   -0.14314  -0.13189  -0.11677  -0.10898  -0.10566
 Alpha virt. eigenvalues --   -0.10344  -0.08143  -0.07748  -0.06737  -0.05816
 Alpha virt. eigenvalues --   -0.05656  -0.05011  -0.04488  -0.04266  -0.03749

  Beta  occ. eigenvalues --  -19.20819 -19.19745 -19.19745 -19.18769 -19.18342
  Beta  occ. eigenvalues --  -19.16660 -19.16659  -2.51594  -2.50617  -2.49553
  Beta  occ. eigenvalues --   -1.64990  -1.64174  -1.63148  -1.63026  -1.62350
  Beta  occ. eigenvalues --   -1.62313  -1.61721  -1.61695  -1.61169  -0.99245
  Beta  occ. eigenvalues --   -0.98589  -0.97438  -0.95943  -0.95308  -0.94655
  Beta  occ. eigenvalues --   -0.93254  -0.53921  -0.53005  -0.44746  -0.44231
  Beta  occ. eigenvalues --   -0.43505  -0.42558  -0.41431  -0.40478  -0.40395
  Beta  occ. eigenvalues --   -0.40205  -0.39876  -0.39014  -0.38854  -0.36707
  Beta  occ. eigenvalues --   -0.36466  -0.36345  -0.35355  -0.33614  -0.33511
  Beta  occ. eigenvalues --   -0.32813
  Beta virt. eigenvalues --   -0.29038  -0.14558  -0.13583  -0.11719  -0.11050
  Beta virt. eigenvalues --   -0.10577  -0.09972  -0.08095  -0.07806  -0.06769
  Beta virt. eigenvalues --   -0.05860  -0.05621  -0.04899  -0.04407  -0.04278

 Mulliken charges and spin densities:
               1          2
     1  Ti   1.549896  -0.123733
     2  Ti   1.547445  -0.196206
     3  O   -0.638810   0.216165
     4  O   -0.638797   0.216236
     5  O   -0.645939   0.200308
     6  O   -0.664216   0.169565
     7  O   -0.331847   0.514286
     8  Ti   1.412477  -0.055986
     9  O   -0.733535   0.030658
    10  H    0.438418  -0.000972
    11  O   -0.733514   0.030652
    12  H    0.438422  -0.000972
 Sum of Mulliken charges =   1.00000   1.00000

 Dipole moment (field-independent basis, Debye):
    X=              5.5515    Y=              0.0035    Z=             -5.1147  Tot=              7.5485
 StAtR1:  DoIntr=F IAtCor=3 NETot=      94 Failed=F Sum=  3.00D+01 SumC=  0.00D+00
 There are a total of      307336 grid points.
 ElSum from          density=       93.0000054504
 ElSum from atomic densities=      124.0000402952

 Hirshfeld populations at iteration   1 (CX, CA, CB, DipXYZ):
               1          2          3          4          5          6
     1  Ti   0.000000   5.551479   5.629432   0.069723  -0.000010   0.185011
     2  Ti   0.000039   5.362383   5.471722   0.809004  -0.000001  -1.086902
     3  O    0.000015   4.250928   4.063521  -0.002231   0.071382  -0.004764

 Normal termination of Gaussian 16 at Mon Jun  7 11:56:53 2021.
