 Gaussian 16, Revision A.03,
 Gaussian 16:  ES64L-G16RevA.03 25-Dec-2016

 ----------------------------------------------------------------------
 #p B3LYP/LANL2DZ # SCRF=(Solvent=Ethanol) # Pop=(Chelp, ReadRadii) # G
 finput IOP(6/7=3) Density Test # Units(Ang,Deg)
 ----------------------------------------------------------------------

 ----------
 3-tio2.pdb
 ----------
 Symbolic Z-matrix:
 Charge =  0 Multiplicity = 1

                         Standard orientation:
 ---------------------------------------------------------------------
 Center     Atomic      Atomic             Coordinates (Angstroms)
 Number     Number       Type             X           Y           Z
 ---------------------------------------------------------------------
      1         22           0        2.726994    0.401258   -0.047705
      2         22           0        0.005248   -0.002642    0.001996
      3         22           0       -2.716498   -0.406541    0.051697
      4          8           0       -1.597126    1.046684   -0.039274
      5          8           0       -1.188846   -1.438791   -0.090267
      6          8           0        1.230515    1.480849    0.098021
      7          8           0        1.504924   -1.045720    0.031827
      8          8           0        3.772819   -0.850755    0.045392
      9          8           0       -3.765581    0.829526   -0.062169
 ---------------------------------------------------------------------

 SCF Done:  E(RB3LYP) =  -626.014264406     A.U. after   19 cycles

 The electronic state is 1-A.
 Alpha  occ. eigenvalues --  -19.11458 -19.10277 -19.10260 -19.10135 -19.09778
 Alpha  occ. eigenvalues --  -19.08920  -2.45960  -2.44192  -2.42862  -1.58989
 Alpha  occ. eigenvalues --   -1.57860  -1.57332  -1.56810  -1.56226  -1.56114
 Alpha  occ. eigenvalues --   -1.55809  -1.55033  -1.54733  -0.91129  -0.89623
 Alpha  occ. eigenvalues --   -0.88791  -0.87644  -0.84333  -0.83608  -0.39753
 Alpha  occ. eigenvalues --   -0.38287  -0.37951  -0.36910  -0.35510  -0.34895
 Alpha  occ. eigenvalues --   -0.34193  -0.32989  -0.32618  -0.32572  -0.32283
 Alpha  occ. eigenvalues --   -0.29122  -0.27917  -0.27160  -0.26669  -0.26203
 Alpha  occ. eigenvalues --   -0.25791  -0.22933
 Alpha virt. eigenvalues --   -0.11268  -0.09658  -0.08934  -0.08189  -0.07731
 Alpha virt. eigenvalues --   -0.07394  -0.05447  -0.04734  -0.02364  -0.01948
 Alpha virt. eigenvalues --   -0.01450  -0.01316  -0.01029  -0.00486   0.01076

 Mulliken charges:
               1
     1  Ti   1.300129
     2  Ti   1.418458
     3  Ti   1.253577
     4  O   -0.707335
     5  O   -0.775385
     6  O   -0.788482
     7  O   -0.693468
     8  O   -0.505645
     9  O   -0.501849
 Sum of Mulliken charges =   0.00000

 Dipole moment (field-independent basis, Debye):
    X=              0.8695    Y=             -0.4266    Z=              0.0925  Tot=              0.9729
 Quadrupole moment (field-independent basis, Debye-Ang):
   XX=            -89.8781   YY=           -102.7723   ZZ=            -67.5136
   XY=             43.0127   XZ=             -6.4725   YZ=             -1.2417

 ESP charges:
               1
     1  Ti   0.000000
     2  Ti   0.000000
     3  Ti   0.000000
     4  O    0.000000
     5  O    0.000000
     6  O    0.000000
     7  O    0.000000
     8  O    0.000000
     9  O    0.000000
 Sum of ESP charges =   0.00000

 Normal termination of Gaussian 16 at Mon May 31 13:12:00 2021.
