 Gaussian 16, Revision A.03,
 Gaussian 16:  ES64L-G16RevA.03 25-Dec-2016

 ----------------------------------------------------------------------
 #t B3LYP/LANL2DZ # SCRF=(Solvent=Ethanol) # Gfinput IOP(6/7=3) Pop=hir
 shfeld Density Test # Units(Ang,Deg)
 ----------------------------------------------------------------------
 ----------
 3-tio2.pdb
 ----------
 Symbolic Z-matrix:
 Charge = -1 Multiplicity = 2

                         Standard orientation:
 ---------------------------------------------------------------------
 Center     Atomic      Atomic             Coordinates (Angstroms)
 Number     Number       Type             X           Y           Z
 ---------------------------------------------------------------------
      1         22           0        2.726994    0.401258   -0.047705
      2         22           0        0.005248   -0.002642    0.001996
      3         22           0       -2.716498   -0.406541    0.051697
      4          8           0       -1.597126    1.046684   -0.039274
      5          8           0       -1.188846   -1.438791   -0.090267
      6          8           0        1.230515    1.480849    0.098021
      7          8           0        1.504924   -1.045720    0.031827
      8          8           0        3.772819   -0.850755    0.045392
      9          8           0       -3.765581    0.829526   -0.062169
 ---------------------------------------------------------------------

 SCF Done:  E(UB3LYP) =  -626.146186288     A.U. after   27 cycles

 The electronic state is 2-A.
 Alpha  occ. eigenvalues --  -19.06948 -19.06860 -19.06305 -19.06181 -19.06160
 Alpha  occ. eigenvalues --  -19.05986  -2.40841  -2.39742  -2.37311  -1.53763
 Alpha  occ. eigenvalues --   -1.53135  -1.52892  -1.52874  -1.52171  -1.51721
 Alpha  occ. eigenvalues --   -1.49930  -1.49297  -1.49207  -0.87045  -0.85379
 Alpha  occ. eigenvalues --   -0.85175  -0.83542  -0.81427  -0.80594  -0.35928
 Alpha  occ. eigenvalues --   -0.34242  -0.33941  -0.33458  -0.32384  -0.30938
 Alpha  occ. eigenvalues --   -0.30571  -0.30172  -0.29259  -0.29163  -0.28903
 Alpha  occ. eigenvalues --   -0.25725  -0.24376  -0.24090  -0.23418  -0.23233
 Alpha  occ. eigenvalues --   -0.22769  -0.19639  -0.14854
 Alpha virt. eigenvalues --   -0.06811  -0.05865  -0.05668  -0.04286  -0.01347
 Alpha virt. eigenvalues --   -0.00839  -0.00424   0.00653   0.01057   0.01408
 Alpha virt. eigenvalues --    0.01583   0.01708   0.02012   0.02498   0.02651

  Beta  occ. eigenvalues --  -19.07017 -19.06851 -19.06361 -19.06217 -19.06171
  Beta  occ. eigenvalues --  -19.06045  -2.40684  -2.39641  -2.34577  -1.53648
  Beta  occ. eigenvalues --   -1.52917  -1.52791  -1.52644  -1.51995  -1.51578
  Beta  occ. eigenvalues --   -1.48282  -1.46814  -1.44872  -0.87110  -0.85484
  Beta  occ. eigenvalues --   -0.85223  -0.83645  -0.81426  -0.80612  -0.35728
  Beta  occ. eigenvalues --   -0.34066  -0.33925  -0.33412  -0.32344  -0.30917
  Beta  occ. eigenvalues --   -0.30504  -0.30188  -0.29282  -0.29074  -0.28932
  Beta  occ. eigenvalues --   -0.25719  -0.24464  -0.23727  -0.23564  -0.23285
  Beta  occ. eigenvalues --   -0.22807  -0.19708
  Beta virt. eigenvalues --   -0.06913  -0.06000  -0.05570  -0.04225  -0.01897
  Beta virt. eigenvalues --   -0.01074  -0.00402  -0.00283   0.00750   0.01371
  Beta virt. eigenvalues --    0.01651   0.01777   0.01942   0.02452   0.02647

 Mulliken charges and spin densities:
               1          2
     1  Ti   1.169860   0.043215
     2  Ti   0.907501   1.012839
     3  Ti   1.129311   0.027669
     4  O   -0.734601  -0.023022
     5  O   -0.820208  -0.021786
     6  O   -0.825976  -0.022567
     7  O   -0.730521  -0.025661
     8  O   -0.550968   0.004347
     9  O   -0.544398   0.004967
 Sum of Mulliken charges =  -1.00000   1.00000

 Dipole moment (field-independent basis, Debye):
    X=              0.6398    Y=             -0.2846    Z=              0.1022  Tot=              0.7076
 StAtR1:  DoIntr=F IAtCor=3 NETot=      84 Failed=F Sum=  3.00D+01 SumC=  0.00D+00
 There are a total of      235478 grid points.
 ElSum from          density=       85.0000001436
 ElSum from atomic densities=      114.0000053978

 Hirshfeld populations at iteration   1 (CX, CA, CB, DipXYZ):
               1          2          3          4          5          6
     1  Ti   0.000033   5.605989   5.527876   0.527755   0.750911  -0.184151
     2  Ti   0.000004   6.226425   5.370180  -0.006219   0.003958   0.002433
     3  Ti   0.000033   5.608328   5.547021  -0.473270  -0.786492   0.199014

 Normal termination of Gaussian 16 at Mon May 31 13:08:36 2021.
