 Gaussian 16, Revision A.03,
 Gaussian 16:  ES64L-G16RevA.03 25-Dec-2016

 ----------------------------------------------------------------------
 #t B3LYP/LANL2DZ # SCRF=(Solvent=Ethanol) # Gfinput IOP(6/7=3) Pop=hir
 shfeld Density Test # Units(Ang,Deg)
 ----------------------------------------------------------------------
 ----------
 3-tio2.pdb
 ----------
 Symbolic Z-matrix:
 Charge =  1 Multiplicity = 2

                         Standard orientation:
 ---------------------------------------------------------------------
 Center     Atomic      Atomic             Coordinates (Angstroms)
 Number     Number       Type             X           Y           Z
 ---------------------------------------------------------------------
      1         22           0        2.726994    0.401258   -0.047705
      2         22           0        0.005248   -0.002642    0.001996
      3         22           0       -2.716498   -0.406541    0.051697
      4          8           0       -1.597126    1.046684   -0.039274
      5          8           0       -1.188846   -1.438791   -0.090267
      6          8           0        1.230515    1.480849    0.098021
      7          8           0        1.504924   -1.045720    0.031827
      8          8           0        3.772819   -0.850755    0.045392
      9          8           0       -3.765581    0.829526   -0.062169
 ---------------------------------------------------------------------

 SCF Done:  E(UB3LYP) =  -625.788709537     A.U. after   25 cycles

 The electronic state is 2-A.
 Alpha  occ. eigenvalues --  -19.20757 -19.18171 -19.18038 -19.14803 -19.14059
 Alpha  occ. eigenvalues --  -19.13840  -2.50425  -2.49656  -2.47953  -1.63917
 Alpha  occ. eigenvalues --   -1.62686  -1.61940  -1.61758  -1.61745  -1.61109
 Alpha  occ. eigenvalues --   -1.60527  -1.60017  -1.59691  -0.99297  -0.95835
 Alpha  occ. eigenvalues --   -0.95332  -0.92878  -0.91209  -0.88228  -0.48589
 Alpha  occ. eigenvalues --   -0.43719  -0.43302  -0.42981  -0.41119  -0.40951
 Alpha  occ. eigenvalues --   -0.39475  -0.38616  -0.38114  -0.37907  -0.36848
 Alpha  occ. eigenvalues --   -0.34991  -0.34206  -0.32615  -0.32273  -0.31142
 Alpha  occ. eigenvalues --   -0.30421  -0.29783
 Alpha virt. eigenvalues --   -0.14679  -0.13799  -0.12890  -0.12290  -0.12183
 Alpha virt. eigenvalues --   -0.11885  -0.10402  -0.09306  -0.07318  -0.07061
 Alpha virt. eigenvalues --   -0.05528  -0.05419  -0.04134  -0.03660   0.00439

  Beta  occ. eigenvalues --  -19.19462 -19.17492 -19.16875 -19.14752 -19.13758
  Beta  occ. eigenvalues --  -19.13679  -2.50873  -2.50086  -2.48165  -1.64298
  Beta  occ. eigenvalues --   -1.63133  -1.62547  -1.62214  -1.62085  -1.61535
  Beta  occ. eigenvalues --   -1.60762  -1.60254  -1.59880  -0.96481  -0.94157
  Beta  occ. eigenvalues --   -0.93787  -0.91986  -0.89421  -0.87393  -0.43968
  Beta  occ. eigenvalues --   -0.43050  -0.42305  -0.41263  -0.39968  -0.39198
  Beta  occ. eigenvalues --   -0.38921  -0.37726  -0.37278  -0.37116  -0.36508
  Beta  occ. eigenvalues --   -0.33552  -0.31477  -0.31197  -0.30650  -0.29471
  Beta  occ. eigenvalues --   -0.28993
  Beta virt. eigenvalues --   -0.22255  -0.15003  -0.14109  -0.13119  -0.12445
  Beta virt. eigenvalues --   -0.12299  -0.12064  -0.10296  -0.09242  -0.07264
  Beta virt. eigenvalues --   -0.06650  -0.05567  -0.05342  -0.03759  -0.03490

 Mulliken charges and spin densities:
               1          2
     1  Ti   1.442644  -0.063652
     2  Ti   1.517041  -0.134586
     3  Ti   1.510888  -0.128494
     4  O   -0.574160   0.461181
     5  O   -0.725306   0.020083
     6  O   -0.746961   0.029697
     7  O   -0.604289   0.249305
     8  O   -0.448945   0.138311
     9  O   -0.370911   0.428156
 Sum of Mulliken charges =   1.00000   1.00000

 Dipole moment (field-independent basis, Debye):
    X=             -3.0577    Y=              0.1597    Z=              0.0445  Tot=              3.0622
 StAtR1:  DoIntr=F IAtCor=3 NETot=      84 Failed=F Sum=  3.00D+01 SumC=  0.00D+00
 There are a total of      235478 grid points.
 ElSum from          density=       83.0000005797
 ElSum from atomic densities=      114.0000053978

 Hirshfeld populations at iteration   1 (CX, CA, CB, DipXYZ):
               1          2          3          4          5          6
     1  Ti   0.000019   5.422164   5.461345   0.544085   0.759758  -0.186964
     2  Ti   0.000003   5.502572   5.583392  -0.038120   0.014155   0.001112
     3  Ti   0.000017   5.377262   5.447752  -0.620103  -0.767553   0.193549

 Normal termination of Gaussian 16 at Mon May 31 13:07:27 2021.
