 Gaussian 16, Revision A.03,
 Gaussian 16:  EM64L-G16RevA.03 25-Dec-2016

 ----------------------------------------------------------------------
 #t B3LYP/6-31G(d,p) # Gfinput IOP(6/7=3) Pop=hirshfeld Density Test #
 Units(Ang,Deg)
 ----------------------------------------------------------------------
 ------------------------
 risendronate-opt-g09.log
 ------------------------
 Symbolic Z-matrix:
 Charge =  0 Multiplicity = 1

                         Standard orientation:
 ---------------------------------------------------------------------
 Center     Atomic      Atomic             Coordinates (Angstroms)
 Number     Number       Type             X           Y           Z
 ---------------------------------------------------------------------
      1          6           0       -0.613520   -0.365099   -0.318019
      2          8           0       -0.437330   -0.716869   -1.683789
      3          1           0       -0.907850   -0.068179   -2.230019
      4         15           0       -2.391560   -0.694569    0.162211
      5         15           0       -0.471700    1.479131   -0.046119
      6          8           0       -2.642400   -2.281759    0.087581
      7          1           0       -3.167230   -2.505900   -0.694869
      8          8           0       -2.473430   -0.446749    1.737591
      9          1           0       -2.034660    0.416411    1.941811
     10          8           0       -1.394490    2.072871   -1.214769
     11          1           0       -2.290410    1.656141   -1.156899
     12          8           0        0.938900    2.041411   -0.555019
     13          1           0        1.645710    1.905601    0.096101
     14          8           0       -0.842120    1.755171    1.379241
     15          8           0       -3.269240    0.119790   -0.742009
     16          6           0        0.367830   -1.205809    0.525481
     17          1           0        0.174050   -2.253109    0.268671
     18          1           0        0.113610   -1.081759    1.581031
     19          6           0        1.826420   -0.873389    0.307671
     20          6           0        2.513310   -1.239129   -0.856959
     21          6           0        2.544520   -0.158289    1.276561
     22          6           0        3.847900   -0.871199   -0.999449
     23          1           0        2.000040   -1.790629   -1.637559
     24          7           0        3.823760    0.219851    1.146291
     25          1           0        2.055910    0.127311    2.208671
     26          6           0        4.455430   -0.137359    0.021701
     27          1           0        4.409530   -1.139469   -1.888579
     28          1           0        5.493450    0.176941   -0.066339
 ---------------------------------------------------------------------

 SCF Done:  E(RB3LYP) =  -1537.55604086     A.U. after   15 cycles

 The electronic state is 1-A.
 Alpha  occ. eigenvalues --  -77.24399 -77.24315 -19.21377 -19.21048 -19.19598
 Alpha  occ. eigenvalues --  -19.19456 -19.19304 -19.14134 -19.14117 -14.34720
 Alpha  occ. eigenvalues --  -10.28851 -10.23843 -10.23771 -10.22719 -10.22555
 Alpha  occ. eigenvalues --  -10.22166 -10.21509  -6.69329  -6.69284  -4.85761
 Alpha  occ. eigenvalues --   -4.85720  -4.85642  -4.85590  -4.85445  -4.85390
 Alpha  occ. eigenvalues --   -1.10645  -1.09804  -1.06414  -1.05299  -1.04930
 Alpha  occ. eigenvalues --   -0.99074  -0.98619  -0.95661  -0.84118  -0.80013
 Alpha  occ. eigenvalues --   -0.76415  -0.69154  -0.66126  -0.64710  -0.64299
 Alpha  occ. eigenvalues --   -0.61685  -0.57710  -0.54981  -0.53861  -0.53562
 Alpha  occ. eigenvalues --   -0.52581  -0.50341  -0.48675  -0.47986  -0.47550
 Alpha  occ. eigenvalues --   -0.46194  -0.45460  -0.43779  -0.42944  -0.42099
 Alpha  occ. eigenvalues --   -0.41884  -0.41246  -0.41010  -0.39992  -0.39872
 Alpha  occ. eigenvalues --   -0.38380  -0.37382  -0.37263  -0.37201  -0.35377
 Alpha  occ. eigenvalues --   -0.33761  -0.32211  -0.32014  -0.31620  -0.29914
 Alpha  occ. eigenvalues --   -0.28289  -0.27399  -0.26792
 Alpha virt. eigenvalues --   -0.04278  -0.03216   0.00866   0.04107   0.04432
 Alpha virt. eigenvalues --    0.05291   0.07891   0.09417   0.10541   0.10691
 Alpha virt. eigenvalues --    0.11385   0.11546   0.11957   0.12206   0.13834

 Mulliken charges:
               1
     1  C   -0.145045
     2  O   -0.529124
     3  H    0.327179
     4  P    1.126593
     5  P    1.125471
     6  O   -0.543440
     7  H    0.356989
     8  O   -0.568518
     9  H    0.374974
    10  O   -0.579774
    11  H    0.372476
    12  O   -0.528395
    13  H    0.358236
    14  O   -0.598580
    15  O   -0.610705
    16  C   -0.263977
    17  H    0.148187
    18  H    0.139715
    19  C    0.078001
    20  C   -0.062182
    21  C    0.004577
    22  C   -0.093670
    23  H    0.119264
    24  N   -0.427473
    25  H    0.117655
    26  C    0.090298
    27  H    0.102435
    28  H    0.108829
 Sum of Mulliken charges =  -0.00000

 Dipole moment (field-independent basis, Debye):
    X=              1.6148    Y=             -3.2960    Z=             -2.5825  Tot=              4.4878
 There are a total of      633332 grid points.
 ElSum from          density=      145.9999703668
 ElSum from atomic densities=      145.9999682822
 Hirshfeld populations at iteration   1 (CA, CB, DipXYZ):
               1          2          3          4          5
     1  C    2.999778   2.999778   0.051892  -0.056761  -0.072899
     2  O    4.103588   4.103588  -0.054390   0.098880   0.041238
     3  H    0.419107   0.419107  -0.078756   0.099958  -0.150588
     4  P    7.260971   7.260971  -0.036584  -0.103918   0.093862
     5  P    7.262542   7.262542   0.058052   0.086585  -0.078056

 Normal termination of Gaussian 16 at Fri Jan 22 02:36:48 2021.
