 Gaussian 16, Revision A.03,
 Gaussian 16:  EM64L-G16RevA.03 25-Dec-2016

 ----------------------------------------------------------------------
 #t B3LYP/6-31G(d,p) # Gfinput IOP(6/7=3) Pop=hirshfeld Density Test #
 Units(Ang,Deg)
 ----------------------------------------------------------------------
 ------------------------
 risendronate-opt-g09.log
 ------------------------
 Symbolic Z-matrix:
 Charge = -1 Multiplicity = 2

                         Standard orientation:
 ---------------------------------------------------------------------
 Center     Atomic      Atomic             Coordinates (Angstroms)
 Number     Number       Type             X           Y           Z
 ---------------------------------------------------------------------
      1          6           0       -0.613520   -0.365099   -0.318019
      2          8           0       -0.437330   -0.716869   -1.683789
      3          1           0       -0.907850   -0.068179   -2.230019
      4         15           0       -2.391560   -0.694569    0.162211
      5         15           0       -0.471700    1.479131   -0.046119
      6          8           0       -2.642400   -2.281759    0.087581
      7          1           0       -3.167230   -2.505900   -0.694869
      8          8           0       -2.473430   -0.446749    1.737591
      9          1           0       -2.034660    0.416411    1.941811
     10          8           0       -1.394490    2.072871   -1.214769
     11          1           0       -2.290410    1.656141   -1.156899
     12          8           0        0.938900    2.041411   -0.555019
     13          1           0        1.645710    1.905601    0.096101
     14          8           0       -0.842120    1.755171    1.379241
     15          8           0       -3.269240    0.119790   -0.742009
     16          6           0        0.367830   -1.205809    0.525481
     17          1           0        0.174050   -2.253109    0.268671
     18          1           0        0.113610   -1.081759    1.581031
     19          6           0        1.826420   -0.873389    0.307671
     20          6           0        2.513310   -1.239129   -0.856959
     21          6           0        2.544520   -0.158289    1.276561
     22          6           0        3.847900   -0.871199   -0.999449
     23          1           0        2.000040   -1.790629   -1.637559
     24          7           0        3.823760    0.219851    1.146291
     25          1           0        2.055910    0.127311    2.208671
     26          6           0        4.455430   -0.137359    0.021701
     27          1           0        4.409530   -1.139469   -1.888579
     28          1           0        5.493450    0.176941   -0.066339
 ---------------------------------------------------------------------

 SCF Done:  E(UB3LYP) =  -1537.52707635     A.U. after   29 cycles

 The electronic state is 2-A.
 Alpha  occ. eigenvalues --  -77.11848 -77.11243 -19.09435 -19.07688 -19.07610
 Alpha  occ. eigenvalues --  -19.06808 -19.05999 -19.02469 -19.01319 -14.11929
 Alpha  occ. eigenvalues --  -10.14970 -10.07128 -10.04070 -10.03234 -10.02777
 Alpha  occ. eigenvalues --  -10.01421  -9.99483  -6.56886  -6.56154  -4.73329
 Alpha  occ. eigenvalues --   -4.73192  -4.72950  -4.72581  -4.72478  -4.72263
 Alpha  occ. eigenvalues --   -0.98557  -0.97066  -0.93532  -0.93033  -0.92032
 Alpha  occ. eigenvalues --   -0.87237  -0.86094  -0.75078  -0.67030  -0.61274
 Alpha  occ. eigenvalues --   -0.58647  -0.54050  -0.53486  -0.50269  -0.45748
 Alpha  occ. eigenvalues --   -0.44149  -0.43136  -0.42718  -0.41321  -0.39684
 Alpha  occ. eigenvalues --   -0.36024  -0.35114  -0.34427  -0.33334  -0.33264
 Alpha  occ. eigenvalues --   -0.30964  -0.30850  -0.29297  -0.29212  -0.28104
 Alpha  occ. eigenvalues --   -0.27260  -0.26581  -0.25929  -0.24694  -0.24519
 Alpha  occ. eigenvalues --   -0.24264  -0.22908  -0.21974  -0.21392  -0.21039
 Alpha  occ. eigenvalues --   -0.20483  -0.19602  -0.19128  -0.18394  -0.14986
 Alpha  occ. eigenvalues --   -0.11197  -0.08871  -0.06978   0.09577
 Alpha virt. eigenvalues --    0.12624   0.15441   0.16331   0.16505   0.18514
 Alpha virt. eigenvalues --    0.21469   0.22617   0.23537   0.24367   0.24626
 Alpha virt. eigenvalues --    0.25236   0.26287   0.26570   0.27477   0.29028

  Beta  occ. eigenvalues --  -77.11832 -77.11237 -19.09361 -19.07670 -19.07607
  Beta  occ. eigenvalues --  -19.06731 -19.05994 -19.02455 -19.01297 -14.11278
  Beta  occ. eigenvalues --  -10.14934 -10.07125 -10.04041 -10.03093 -10.02802
  Beta  occ. eigenvalues --  -10.01429  -9.98904  -6.56863  -6.56144  -4.73310
  Beta  occ. eigenvalues --   -4.73176  -4.72928  -4.72566  -4.72472  -4.72257
  Beta  occ. eigenvalues --   -0.98445  -0.96986  -0.93438  -0.93005  -0.91928
  Beta  occ. eigenvalues --   -0.87193  -0.86041  -0.74193  -0.66832  -0.60584
  Beta  occ. eigenvalues --   -0.58291  -0.53855  -0.53409  -0.50147  -0.45256
  Beta  occ. eigenvalues --   -0.43967  -0.42859  -0.42493  -0.41256  -0.39617
  Beta  occ. eigenvalues --   -0.35941  -0.35063  -0.34274  -0.33284  -0.33060
  Beta  occ. eigenvalues --   -0.30854  -0.30653  -0.29218  -0.29005  -0.28033
  Beta  occ. eigenvalues --   -0.27201  -0.26496  -0.25832  -0.24644  -0.24407
  Beta  occ. eigenvalues --   -0.24209  -0.22593  -0.21762  -0.21083  -0.20447
  Beta  occ. eigenvalues --   -0.19785  -0.19505  -0.18878  -0.18241  -0.14909
  Beta  occ. eigenvalues --   -0.08281  -0.07702  -0.06225
  Beta virt. eigenvalues --    0.12975   0.15676   0.16401   0.16548   0.17400
  Beta virt. eigenvalues --    0.19127   0.21695   0.22738   0.23699   0.24505
  Beta virt. eigenvalues --    0.24786   0.25339   0.26549   0.26714   0.27668

 Mulliken charges and spin densities:
               1          2
     1  C   -0.124041  -0.003099
     2  O   -0.522971   0.000916
     3  H    0.307045  -0.000005
     4  P    1.071432   0.042741
     5  P    1.076661   0.059710
     6  O   -0.534850  -0.005343
     7  H    0.306473   0.037196
     8  O   -0.579640  -0.001161
     9  H    0.360173   0.007751
    10  O   -0.595919  -0.000975
    11  H    0.353247   0.005672
    12  O   -0.526054   0.001286
    13  H    0.349884   0.013528
    14  O   -0.615303  -0.000661
    15  O   -0.633578   0.000303
    16  C   -0.249079   0.003205
    17  H    0.091758   0.021517
    18  H    0.103529  -0.000756
    19  C    0.083296  -0.020215
    20  C   -0.153172   0.437360
    21  C   -0.031735   0.033353
    22  C   -0.099531  -0.007769
    23  H    0.015076  -0.023804
    24  N   -0.534157   0.303727
    25  H    0.031625  -0.003528
    26  C    0.042427   0.108705
    27  H    0.001672  -0.001694
    28  H    0.005731  -0.007959
 Sum of Mulliken charges =  -1.00000   1.00000

 Dipole moment (field-independent basis, Debye):
    X=             -7.5965    Y=             -1.1429    Z=             -2.5430  Tot=              8.0920
 There are a total of      633332 grid points.
 ElSum from          density=      146.9999703001
 ElSum from atomic densities=      145.9999682822
 Hirshfeld populations at iteration   1 (CA, CB, DipXYZ):
               1          2          3          4          5
     1  C    3.005294   2.995066   0.057655  -0.050947  -0.080543
     2  O    4.105581   4.103098  -0.042105   0.101067   0.052944
     3  H    0.425379   0.425082  -0.074332   0.098789  -0.144677
     4  P    7.284075   7.262349  -0.020728  -0.087610   0.098040
     5  P    7.282863   7.259240   0.046272   0.062964  -0.087479

 Normal termination of Gaussian 16 at Fri Jan 22 02:31:56 2021.
