 Gaussian 16, Revision A.03,
 Gaussian 16:  EM64L-G16RevA.03 25-Dec-2016

 ----------------------------------------------------------------------
 #t B3LYP/6-31G(d,p) # Gfinput IOP(6/7=3) Pop=hirshfeld Density Test #
 Units(Ang,Deg)
 ----------------------------------------------------------------------
 ------------------------
 risendronate-opt-g09.log
 ------------------------
 Symbolic Z-matrix:
 Charge =  1 Multiplicity = 2

                         Standard orientation:
 ---------------------------------------------------------------------
 Center     Atomic      Atomic             Coordinates (Angstroms)
 Number     Number       Type             X           Y           Z
 ---------------------------------------------------------------------
      1          6           0       -0.613520   -0.365099   -0.318019
      2          8           0       -0.437330   -0.716869   -1.683789
      3          1           0       -0.907850   -0.068179   -2.230019
      4         15           0       -2.391560   -0.694569    0.162211
      5         15           0       -0.471700    1.479131   -0.046119
      6          8           0       -2.642400   -2.281759    0.087581
      7          1           0       -3.167230   -2.505900   -0.694869
      8          8           0       -2.473430   -0.446749    1.737591
      9          1           0       -2.034660    0.416411    1.941811
     10          8           0       -1.394490    2.072871   -1.214769
     11          1           0       -2.290410    1.656141   -1.156899
     12          8           0        0.938900    2.041411   -0.555019
     13          1           0        1.645710    1.905601    0.096101
     14          8           0       -0.842120    1.755171    1.379241
     15          8           0       -3.269240    0.119790   -0.742009
     16          6           0        0.367830   -1.205809    0.525481
     17          1           0        0.174050   -2.253109    0.268671
     18          1           0        0.113610   -1.081759    1.581031
     19          6           0        1.826420   -0.873389    0.307671
     20          6           0        2.513310   -1.239129   -0.856959
     21          6           0        2.544520   -0.158289    1.276561
     22          6           0        3.847900   -0.871199   -0.999449
     23          1           0        2.000040   -1.790629   -1.637559
     24          7           0        3.823760    0.219851    1.146291
     25          1           0        2.055910    0.127311    2.208671
     26          6           0        4.455430   -0.137359    0.021701
     27          1           0        4.409530   -1.139469   -1.888579
     28          1           0        5.493450    0.176941   -0.066339
 ---------------------------------------------------------------------

 SCF Done:  E(UB3LYP) =  -1537.22213194     A.U. after   36 cycles

 The electronic state is 2-A.
 Alpha  occ. eigenvalues --  -77.39852 -77.39656 -19.37872 -19.35796 -19.35251
 Alpha  occ. eigenvalues --  -19.34269 -19.33893 -19.29790 -19.29377 -14.56509
 Alpha  occ. eigenvalues --  -10.46351 -10.42321 -10.41864 -10.40477 -10.38976
 Alpha  occ. eigenvalues --  -10.38967 -10.38668  -6.84802  -6.84589  -5.01170
 Alpha  occ. eigenvalues --   -5.01112  -5.00995  -5.00983  -5.00896  -5.00760
 Alpha  occ. eigenvalues --   -1.25811  -1.24167  -1.23588  -1.19572  -1.19318
 Alpha  occ. eigenvalues --   -1.15068  -1.14241  -1.13725  -1.01542  -0.97228
 Alpha  occ. eigenvalues --   -0.93956  -0.85859  -0.82126  -0.81094  -0.79951
 Alpha  occ. eigenvalues --   -0.78027  -0.74421  -0.70983  -0.69925  -0.68209
 Alpha  occ. eigenvalues --   -0.68025  -0.67445  -0.64713  -0.63395  -0.62606
 Alpha  occ. eigenvalues --   -0.62018  -0.60833  -0.59794  -0.59164  -0.58861
 Alpha  occ. eigenvalues --   -0.58059  -0.57790  -0.56536  -0.55129  -0.54939
 Alpha  occ. eigenvalues --   -0.54371  -0.53539  -0.52279  -0.51621  -0.50580
 Alpha  occ. eigenvalues --   -0.48969  -0.48167  -0.47334  -0.47003  -0.46819
 Alpha  occ. eigenvalues --   -0.46716  -0.44851  -0.44569
 Alpha virt. eigenvalues --   -0.21915  -0.20188  -0.13950  -0.11152  -0.10283
 Alpha virt. eigenvalues --   -0.08825  -0.07038  -0.05508  -0.04998  -0.04211
 Alpha virt. eigenvalues --   -0.03782  -0.03438  -0.03085  -0.02453  -0.00758

  Beta  occ. eigenvalues --  -77.39840 -77.39652 -19.37499 -19.35770 -19.35206
  Beta  occ. eigenvalues --  -19.34172 -19.33860 -19.29562 -19.29249 -14.55764
  Beta  occ. eigenvalues --  -10.46186 -10.42252 -10.41809 -10.40356 -10.39004
  Beta  occ. eigenvalues --  -10.38957 -10.38559  -6.84788  -6.84584  -5.01170
  Beta  occ. eigenvalues --   -5.01090  -5.00983  -5.00962  -5.00892  -5.00742
  Beta  occ. eigenvalues --   -1.25445  -1.24028  -1.23033  -1.19440  -1.19173
  Beta  occ. eigenvalues --   -1.14054  -1.13824  -1.13350  -1.01103  -0.96843
  Beta  occ. eigenvalues --   -0.93416  -0.85413  -0.81632  -0.80825  -0.79587
  Beta  occ. eigenvalues --   -0.77756  -0.74169  -0.70423  -0.69351  -0.68041
  Beta  occ. eigenvalues --   -0.67611  -0.67210  -0.64370  -0.63182  -0.62363
  Beta  occ. eigenvalues --   -0.61759  -0.60523  -0.59112  -0.58496  -0.58258
  Beta  occ. eigenvalues --   -0.57902  -0.57378  -0.56182  -0.54716  -0.54477
  Beta  occ. eigenvalues --   -0.54139  -0.52182  -0.52085  -0.51409  -0.50160
  Beta  occ. eigenvalues --   -0.48225  -0.47035  -0.46688  -0.46561  -0.45956
  Beta  occ. eigenvalues --   -0.44202  -0.42763
  Beta virt. eigenvalues --   -0.39646  -0.21406  -0.19853  -0.13732  -0.10891
  Beta virt. eigenvalues --   -0.10112  -0.08650  -0.06858  -0.05213  -0.04739
  Beta virt. eigenvalues --   -0.03857  -0.03595  -0.03265  -0.02913  -0.02296

 Mulliken charges and spin densities:
               1          2
     1  C   -0.166124   0.093614
     2  O   -0.449961   0.139205
     3  H    0.359079  -0.003468
     4  P    1.174957   0.022712
     5  P    1.150538   0.007873
     6  O   -0.518876   0.015419
     7  H    0.380380  -0.000100
     8  O   -0.530262   0.033788
     9  H    0.389817  -0.001062
    10  O   -0.550940   0.012160
    11  H    0.388877  -0.000965
    12  O   -0.504979   0.009257
    13  H    0.362799  -0.000712
    14  O   -0.552488   0.050903
    15  O   -0.546493   0.090303
    16  C   -0.276494   0.004919
    17  H    0.196439   0.005297
    18  H    0.175763  -0.000170
    19  C    0.078026   0.071927
    20  C   -0.042401  -0.030178
    21  C    0.044900   0.025531
    22  C   -0.076675   0.069208
    23  H    0.172197   0.009249
    24  N   -0.334902   0.337160
    25  H    0.183620   0.007802
    26  C    0.125071   0.016214
    27  H    0.175293   0.001242
    28  H    0.192839   0.012873
 Sum of Mulliken charges =   1.00000   1.00000

 Dipole moment (field-independent basis, Debye):
    X=              6.6836    Y=             -4.0861    Z=             -2.2851  Tot=              8.1601
 There are a total of      633332 grid points.
 ElSum from          density=      144.9999712272
 ElSum from atomic densities=      145.9999682822
 Hirshfeld populations at iteration   1 (CA, CB, DipXYZ):
               1          2          3          4          5
     1  C    3.027772   2.944950   0.042543  -0.057427  -0.071184
     2  O    4.129813   4.003459  -0.053077   0.086456   0.010472
     3  H    0.408130   0.404256  -0.081070   0.097809  -0.158617
     4  P    7.258876   7.223898  -0.037247  -0.097586   0.087910
     5  P    7.261353   7.241365   0.054015   0.097618  -0.072646

 Normal termination of Gaussian 16 at Fri Jan 22 02:35:41 2021.
