 Gaussian 09, Revision A.02,
 Gaussian 09:  EM64L-G09RevA.02 11-Jun-2009

 ----------------------------------------------------------------------
 #P B3LYP/6-31G(d,p) # Opt=tight SCRF=(Solvent=Water) # Gfinput IOP(6/7
 =3) Pop=full Density Test # Units(Ang,Deg)
 ----------------------------------------------------------------------

 -------------------
 Title Card Required
 -------------------
 Symbolic Z-matrix:
 Charge =  0 Multiplicity = 1

 SCF Done:  E(RB3LYP) =  -383.773655137     A.U. after   20 cycles
 SCF Done:  E(RB3LYP) =  -383.874080921     A.U. after   15 cycles
 SCF Done:  E(RB3LYP) =  -384.048950340     A.U. after   17 cycles
 SCF Done:  E(RB3LYP) =  -384.203078948     A.U. after   14 cycles
 SCF Done:  E(RB3LYP) =  -384.278519235     A.U. after   12 cycles
 SCF Done:  E(RB3LYP) =  -384.386515835     A.U. after   14 cycles
 SCF Done:  E(RB3LYP) =  -384.426409749     A.U. after   13 cycles
 SCF Done:  E(RB3LYP) =  -384.440983415     A.U. after   13 cycles
 SCF Done:  E(RB3LYP) =  -384.450576405     A.U. after   13 cycles
 SCF Done:  E(RB3LYP) =  -384.454097059     A.U. after   12 cycles
 SCF Done:  E(RB3LYP) =  -384.455590798     A.U. after   14 cycles
 SCF Done:  E(RB3LYP) =  -384.455590806     A.U. after    6 cycles
 SCF Done:  E(RB3LYP) =  -384.455590808     A.U. after    5 cycles
 SCF Done:  E(RB3LYP) =  -384.455590810     A.U. after    5 cycles
 SCF Done:  E(RB3LYP) =  -384.455590814     A.U. after   13 cycles
 SCF Done:  E(RB3LYP) =  -384.455590831     A.U. after    6 cycles
 SCF Done:  E(RB3LYP) =  -384.455590873     A.U. after    6 cycles
 SCF Done:  E(RB3LYP) =  -384.455590923     A.U. after    6 cycles
 SCF Done:  E(RB3LYP) =  -384.455590938     A.U. after    6 cycles
 SCF Done:  E(RB3LYP) =  -384.455590939     A.U. after    5 cycles
 Optimization completed.
    -- Stationary point found.

                         Standard orientation:
 ---------------------------------------------------------------------
 Center     Atomic      Atomic             Coordinates (Angstroms)
 Number     Number       Type             X           Y           Z
 ---------------------------------------------------------------------
      1          6           0        4.343163    0.125633    0.000018
      2          6           0        5.530034   -0.126248    0.000019
      3          1           0        6.571011   -0.360719    0.000075
      4          6           0        2.968254    0.465425   -0.000020
      5          1           0        2.720606    1.524844   -0.000037
      6          6           0        1.967913   -0.454230   -0.000030
      7          1           0        2.219423   -1.513113   -0.000019
      8          6           0        0.598697   -0.119899   -0.000061
      9          6           0       -0.598693    0.119898    0.000031
     10          6           0       -1.967911    0.454232    0.000020
     11          1           0       -2.219419    1.513116    0.000017
     12          6           0       -2.968255   -0.465421    0.000020
     13          1           0       -2.720611   -1.524840    0.000029
     14          6           0       -4.343163   -0.125628    0.000008
     15          6           0       -5.530037    0.126238   -0.000018
     16          1           0       -6.571014    0.360706    0.000009
 ---------------------------------------------------------------------

 The electronic state is 1-A.
 Alpha  occ. eigenvalues --  -10.22798 -10.22798 -10.22722 -10.22722 -10.20668
 Alpha  occ. eigenvalues --  -10.20456 -10.20309 -10.20309 -10.19752 -10.19752
 Alpha  occ. eigenvalues --   -0.83636  -0.82526  -0.77612  -0.75209  -0.72259
 Alpha  occ. eigenvalues --   -0.66476  -0.62863  -0.54023  -0.53833  -0.52600
 Alpha  occ. eigenvalues --   -0.50666  -0.48696  -0.47332  -0.41824  -0.40863
 Alpha  occ. eigenvalues --   -0.37407  -0.35190  -0.31522  -0.28701  -0.28421
 Alpha  occ. eigenvalues --   -0.27694  -0.26921  -0.21594
 Alpha virt. eigenvalues --   -0.08480  -0.01804   0.03003   0.03786   0.04008
 Alpha virt. eigenvalues --    0.09842   0.11882   0.12777   0.12993   0.13346
 Alpha virt. eigenvalues --    0.13964   0.16603   0.16944   0.18479   0.23562

 Mulliken atomic charges:
              1
     1  C    0.342991
     2  C   -0.497180
     3  H    0.199193
     4  C   -0.196562
     5  H    0.146757
     6  C   -0.192289
     7  H    0.147563
     8  C    0.049525
     9  C    0.049528
    10  C   -0.192290
    11  H    0.147564
    12  C   -0.196561
    13  H    0.146757
    14  C    0.342994
    15  C   -0.497182
    16  H    0.199193
 Sum of Mulliken atomic charges =   0.00000

 Dipole moment (field-independent basis, Debye):
    X=              0.0000    Y=              0.0000    Z=              0.0001  Tot=              0.0001
 Quadrupole moment (field-independent basis, Debye-Ang):
   XX=            -38.0324   YY=            -52.7446   ZZ=            -60.3382
   XY=             -3.1467   XZ=              0.0001   YZ=             -0.0001

 Normal termination of Gaussian 09 at Mon Mar 14 13:50:09 2022.
