 Gaussian 09, Revision A.02,
 Gaussian 09:  EM64L-G09RevA.02 11-Jun-2009

 ----------------------------------------------------------------------
 #P B3LYP/6-31G(d,p) # Opt=tight SCRF=(Solvent=Water) # Gfinput IOP(6/7
 =3) Pop=full Density Test # Units(Ang,Deg)
 ----------------------------------------------------------------------

 -------------------
 Title Card Required
 -------------------
 Symbolic Z-matrix:
 Charge =  0 Multiplicity = 1

 SCF Done:  E(RB3LYP) =  -230.476187346     A.U. after   16 cycles
 SCF Done:  E(RB3LYP) =  -230.558041429     A.U. after   14 cycles
 SCF Done:  E(RB3LYP) =  -230.690982245     A.U. after   12 cycles
 SCF Done:  E(RB3LYP) =  -230.748505229     A.U. after   12 cycles
 SCF Done:  E(RB3LYP) =  -230.802306530     A.U. after   10 cycles
 SCF Done:  E(RB3LYP) =  -230.871029853     A.U. after   11 cycles
 SCF Done:  E(RB3LYP) =  -230.889432068     A.U. after   11 cycles
 SCF Done:  E(RB3LYP) =  -230.891960063     A.U. after   11 cycles
 SCF Done:  E(RB3LYP) =  -230.892456603     A.U. after   10 cycles
 SCF Done:  E(RB3LYP) =  -230.890432372     A.U. after   12 cycles
 SCF Done:  E(RB3LYP) =  -230.892784207     A.U. after   13 cycles
 SCF Done:  E(RB3LYP) =  -230.892785283     A.U. after   14 cycles
 SCF Done:  E(RB3LYP) =  -230.892780986     A.U. after   14 cycles
 SCF Done:  E(RB3LYP) =  -230.892789745     A.U. after    9 cycles
 SCF Done:  E(RB3LYP) =  -230.892794225     A.U. after   14 cycles
 SCF Done:  E(RB3LYP) =  -230.892799479     A.U. after    9 cycles
 SCF Done:  E(RB3LYP) =  -230.892808948     A.U. after   14 cycles
 SCF Done:  E(RB3LYP) =  -230.892811558     A.U. after   12 cycles
 SCF Done:  E(RB3LYP) =  -230.892811590     A.U. after    7 cycles
 SCF Done:  E(RB3LYP) =  -230.892811591     A.U. after    5 cycles
 Optimization completed.
    -- Stationary point found.

                         Standard orientation:
 ---------------------------------------------------------------------
 Center     Atomic      Atomic             Coordinates (Angstroms)
 Number     Number       Type             X           Y           Z
 ---------------------------------------------------------------------
      1          6           0       -1.874480   -0.135396   -0.000044
      2          6           0       -3.063337    0.103902   -0.000086
      3          1           0       -4.106543    0.328241    0.001729
      4          6           0       -0.494353   -0.462782   -0.000136
      5          1           0       -0.238294   -1.520277   -0.000139
      6          6           0        0.494354    0.462789   -0.000133
      7          1           0        0.238295    1.520283   -0.000147
      8          6           0        1.874481    0.135401   -0.000043
      9          6           0        3.063335   -0.103913   -0.000086
     10          1           0        4.106542   -0.328250    0.001724
 ---------------------------------------------------------------------

 The electronic state is 1-A.
 Alpha  occ. eigenvalues --  -10.22790 -10.22715 -10.20285 -10.20285 -10.19711
 Alpha  occ. eigenvalues --  -10.19711  -0.83048  -0.76932  -0.72937  -0.64935
 Alpha  occ. eigenvalues --   -0.54100  -0.53825  -0.50337  -0.47695  -0.41244
 Alpha  occ. eigenvalues --   -0.36271  -0.30897  -0.28722  -0.28131  -0.23496
 Alpha virt. eigenvalues --   -0.06073   0.03677   0.04101   0.08786   0.12830
 Alpha virt. eigenvalues --    0.13054   0.13573   0.13661   0.17606   0.26192
 Alpha virt. eigenvalues --    0.31958   0.32988   0.42635   0.43983   0.47231

 Mulliken atomic charges:
              1
     1  C    0.324500
     2  C   -0.486144
     3  H    0.198245
     4  C   -0.183885
     5  H    0.147285
     6  C   -0.183888
     7  H    0.147285
     8  C    0.324502
     9  C   -0.486145
    10  H    0.198245
 Sum of Mulliken atomic charges =   0.00000

 Dipole moment (field-independent basis, Debye):
    X=              0.0000    Y=              0.0000    Z=              0.0041  Tot=              0.0041
 Quadrupole moment (field-independent basis, Debye-Ang):
   XX=            -22.4371   YY=            -32.7683   ZZ=            -36.6953
   XY=             -2.1808   XZ=              0.0000   YZ=              0.0000

 Normal termination of Gaussian 09 at Mon Mar 14 13:35:06 2022.
