 Gaussian 16, Revision A.03,
 Gaussian 16:  EM64L-G16RevA.03 25-Dec-2016

 ----------------------------------------------------------------------
 #t B3LYP/6-31G(d,p) scrf=(solvent=water) # Gfinput IOP(6/7=3) Pop=hirs
 hfeld Density Test # Units(Ang,Deg)
 ----------------------------------------------------------------------
 -------------------
 eti-2dp-opt-g09.log
 -------------------
 Symbolic Z-matrix:
 Charge = -2 Multiplicity = 1

                         Standard orientation:
 ---------------------------------------------------------------------
 Center     Atomic      Atomic             Coordinates (Angstroms)
 Number     Number       Type             X           Y           Z
 ---------------------------------------------------------------------
      1          6           0       -0.036779    1.863110   -0.819110
      2          1           0       -0.056429    1.530090   -1.859910
      3          1           0        0.839102    2.498120   -0.663580
      4          6           0       -0.007820    0.669010    0.136180
      5          8           0        0.019051    1.184540    1.485910
      6          1           0        0.569950    0.527050    1.957890
      7         15           0        1.556859   -0.362081   -0.027550
      8         15           0       -1.549941   -0.374428   -0.084340
      9          8           0        1.905239   -0.753661    1.401510
     10          8           0       -1.523272   -1.531938    0.890460
     11          8           0       -2.722670    0.696933    0.466580
     12          8           0        2.717150    0.761908   -0.461970
     13          8           0        1.471889   -1.388121   -1.134930
     14          8           0       -1.845201   -0.596488   -1.556550
     15          1           0       -0.937108    2.459991   -0.638670
     16          1           0       -3.174199    1.031413   -0.320700
     17          1           0        2.745000    0.822868   -1.427180
 ---------------------------------------------------------------------

 SCF Done:  E(RB3LYP) =  -1289.54206669     A.U. after   13 cycles

 The electronic state is 1-A.
 Alpha  occ. eigenvalues --  -77.14829 -77.13735 -19.13388 -19.12246 -19.11659
 Alpha  occ. eigenvalues --  -19.06307 -19.06082 -19.04986 -19.04984 -10.20557
 Alpha  occ. eigenvalues --  -10.16099  -6.59713  -6.58598  -4.76209  -4.75920
 Alpha  occ. eigenvalues --   -4.75896  -4.75108  -4.74797  -4.74779  -1.00735
 Alpha  occ. eigenvalues --   -0.99489  -0.98148  -0.92335  -0.91253  -0.88611
 Alpha  occ. eigenvalues --   -0.87387  -0.72643  -0.59825  -0.54688  -0.51035
 Alpha  occ. eigenvalues --   -0.48889  -0.44710  -0.41500  -0.40382  -0.39810
 Alpha  occ. eigenvalues --   -0.37467  -0.36871  -0.36696  -0.35086  -0.33669
 Alpha  occ. eigenvalues --   -0.33183  -0.32276  -0.29485  -0.29106  -0.27260
 Alpha  occ. eigenvalues --   -0.27141  -0.25497  -0.24425  -0.23884  -0.23258
 Alpha  occ. eigenvalues --   -0.22877  -0.21905  -0.20468
 Alpha virt. eigenvalues --    0.08248   0.10805   0.11849   0.12626   0.16238
 Alpha virt. eigenvalues --    0.16871   0.17804   0.17984   0.18965   0.21054
 Alpha virt. eigenvalues --    0.21462   0.22694   0.23930   0.26299   0.27407

 Mulliken charges:
               1
     1  C   -0.326483
     2  H    0.105457
     3  H    0.095712
     4  C   -0.110259
     5  O   -0.607305
     6  H    0.310185
     7  P    0.959147
     8  P    0.965036
     9  O   -0.716629
    10  O   -0.711228
    11  O   -0.650134
    12  O   -0.625395
    13  O   -0.697123
    14  O   -0.728022
    15  H    0.092676
    16  H    0.317666
    17  H    0.326698
 Sum of Mulliken charges =  -2.00000

 Dipole moment (field-independent basis, Debye):
    X=              0.7133    Y=              9.3327    Z=             -3.1151  Tot=              9.8647
 There are a total of      380640 grid points.
 ElSum from          density=      105.9999939169
 ElSum from atomic densities=      103.9999921406
 Hirshfeld populations at iteration   1 (CA, CB, DipXYZ):
               1          2          3          4          5
     1  C    3.052140   3.052140  -0.003193   0.001710  -0.009636
     2  H    0.487292   0.487292   0.008982  -0.023016  -0.133578
     3  H    0.490745   0.490745   0.093167   0.092381   0.008095
     4  C    3.007588   3.007588   0.005362   0.068801   0.048272
     5  O    4.141860   4.141860   0.070891  -0.133258  -0.081968

 Normal termination of Gaussian 16 at Mon Feb  8 14:42:15 2021.
