 Gaussian 16, Revision A.03,
 Gaussian 16:  EM64L-G16RevA.03 25-Dec-2016

 ----------------------------------------------------------------------
 #P B3LYP/6-31G(d,p) # Opt SCRF=(Solvent=Water) # Gfinput IOP(6/7=3) Po
 p=full Density Test # Units(Ang,Deg)
 ----------------------------------------------------------------------

 ---------------
 pre-eti-2dp.log
 ---------------
 Symbolic Z-matrix:
 Charge = -2 Multiplicity = 1

 SCF Done:  E(RB3LYP) =  -1289.41918872     A.U. after   14 cycles
 SCF Done:  E(RB3LYP) =  -1289.48236239     A.U. after   12 cycles
 SCF Done:  E(RB3LYP) =  -1289.51708358     A.U. after   12 cycles
 SCF Done:  E(RB3LYP) =  -1289.53236506     A.U. after   11 cycles
 SCF Done:  E(RB3LYP) =  -1289.53663471     A.U. after   11 cycles
 SCF Done:  E(RB3LYP) =  -1289.53771313     A.U. after   11 cycles
 SCF Done:  E(RB3LYP) =  -1289.53790617     A.U. after   11 cycles
 SCF Done:  E(RB3LYP) =  -1289.53832822     A.U. after   10 cycles
 SCF Done:  E(RB3LYP) =  -1289.53842353     A.U. after    9 cycles
 SCF Done:  E(RB3LYP) =  -1289.53826744     A.U. after   10 cycles
 SCF Done:  E(RB3LYP) =  -1289.54058569     A.U. after   10 cycles
 SCF Done:  E(RB3LYP) =  -1289.54071331     A.U. after   10 cycles
 SCF Done:  E(RB3LYP) =  -1289.54119400     A.U. after   11 cycles
 SCF Done:  E(RB3LYP) =  -1289.54148302     A.U. after   10 cycles
 SCF Done:  E(RB3LYP) =  -1289.54183482     A.U. after   11 cycles
 SCF Done:  E(RB3LYP) =  -1289.54192910     A.U. after   11 cycles
 SCF Done:  E(RB3LYP) =  -1289.54205401     A.U. after   10 cycles
 SCF Done:  E(RB3LYP) =  -1289.54206412     A.U. after    9 cycles
 SCF Done:  E(RB3LYP) =  -1289.54206628     A.U. after    8 cycles
 SCF Done:  E(RB3LYP) =  -1289.54206669     A.U. after    7 cycles
 Optimization completed.
    -- Stationary point found.

                         Standard orientation:
 ---------------------------------------------------------------------
 Center     Atomic      Atomic             Coordinates (Angstroms)
 Number     Number       Type             X           Y           Z
 ---------------------------------------------------------------------
      1          6           0        0.036778    1.863108    0.819108
      2          1           0        0.056433    1.530090    1.859908
      3          1           0       -0.839097    2.498125    0.663579
      4          6           0        0.007817    0.669006   -0.136180
      5          8           0       -0.019050    1.184540   -1.485914
      6          1           0       -0.569947    0.527052   -1.957892
      7         15           0       -1.556860   -0.362085    0.027555
      8         15           0        1.549945   -0.374425    0.084338
      9          8           0       -1.905237   -0.753661   -1.401510
     10          8           0        1.523273   -1.531936   -0.890465
     11          8           0        2.722665    0.696931   -0.466577
     12          8           0       -2.717149    0.761912    0.461968
     13          8           0       -1.471892   -1.388118    1.134931
     14          8           0        1.845197   -0.596489    1.556554
     15          1           0        0.937106    2.459992    0.638665
     16          1           0        3.174199    1.031412    0.320701
     17          1           0       -2.745003    0.822868    1.427178
 ---------------------------------------------------------------------

 The electronic state is 1-A.
 Alpha  occ. eigenvalues --  -77.14829 -77.13735 -19.13388 -19.12246 -19.11659
 Alpha  occ. eigenvalues --  -19.06307 -19.06082 -19.04986 -19.04984 -10.20557
 Alpha  occ. eigenvalues --  -10.16099  -6.59713  -6.58599  -4.76209  -4.75920
 Alpha  occ. eigenvalues --   -4.75896  -4.75108  -4.74797  -4.74779  -1.00735
 Alpha  occ. eigenvalues --   -0.99489  -0.98148  -0.92335  -0.91252  -0.88611
 Alpha  occ. eigenvalues --   -0.87387  -0.72643  -0.59825  -0.54688  -0.51035
 Alpha  occ. eigenvalues --   -0.48889  -0.44710  -0.41500  -0.40382  -0.39810
 Alpha  occ. eigenvalues --   -0.37467  -0.36871  -0.36696  -0.35086  -0.33669
 Alpha  occ. eigenvalues --   -0.33183  -0.32276  -0.29485  -0.29106  -0.27260
 Alpha  occ. eigenvalues --   -0.27141  -0.25496  -0.24425  -0.23884  -0.23258
 Alpha  occ. eigenvalues --   -0.22877  -0.21905  -0.20468
 Alpha virt. eigenvalues --    0.08248   0.10805   0.11849   0.12626   0.16238
 Alpha virt. eigenvalues --    0.16871   0.17804   0.17984   0.18965   0.21054
 Alpha virt. eigenvalues --    0.21462   0.22694   0.23930   0.26299   0.27407

 Mulliken charges:
               1
     1  C   -0.326483
     2  H    0.105457
     3  H    0.095711
     4  C   -0.110260
     5  O   -0.607306
     6  H    0.310184
     7  P    0.959148
     8  P    0.965036
     9  O   -0.716633
    10  O   -0.711230
    11  O   -0.650127
    12  O   -0.625396
    13  O   -0.697116
    14  O   -0.728025
    15  H    0.092675
    16  H    0.317668
    17  H    0.326697
 Sum of Mulliken charges =  -2.00000

 Dipole moment (field-independent basis, Debye):
    X=             -0.7132    Y=              9.3327    Z=              3.1151  Tot=              9.8647
 Quadrupole moment (field-independent basis, Debye-Ang):
   XX=           -111.7977   YY=            -98.7400   ZZ=            -97.2776
   XY=              2.2104   XZ=             -4.4657   YZ=              6.5227

 Normal termination of Gaussian 16 at Mon Feb  8 11:32:32 2021.
