 Gaussian 16, Revision A.03,
 Gaussian 16:  EM64L-G16RevA.03 25-Dec-2016

 ----------------------------------------------------------------------
 #t B3LYP/6-31G(d,p) scrf=(solvent=water) # Gfinput IOP(6/7=3) Pop=hirs
 hfeld Density Test # Units(Ang,Deg)
 ----------------------------------------------------------------------
 -------------------
 eti-2dp-opt-g09.log
 -------------------
 Symbolic Z-matrix:
 Charge = -3 Multiplicity = 2

                         Standard orientation:
 ---------------------------------------------------------------------
 Center     Atomic      Atomic             Coordinates (Angstroms)
 Number     Number       Type             X           Y           Z
 ---------------------------------------------------------------------
      1          6           0       -0.036779    1.863110   -0.819110
      2          1           0       -0.056429    1.530090   -1.859910
      3          1           0        0.839102    2.498120   -0.663580
      4          6           0       -0.007820    0.669010    0.136180
      5          8           0        0.019051    1.184540    1.485910
      6          1           0        0.569950    0.527050    1.957890
      7         15           0        1.556859   -0.362081   -0.027550
      8         15           0       -1.549941   -0.374428   -0.084340
      9          8           0        1.905239   -0.753661    1.401510
     10          8           0       -1.523272   -1.531938    0.890460
     11          8           0       -2.722670    0.696933    0.466580
     12          8           0        2.717150    0.761908   -0.461970
     13          8           0        1.471889   -1.388121   -1.134930
     14          8           0       -1.845201   -0.596488   -1.556550
     15          1           0       -0.937108    2.459991   -0.638670
     16          1           0       -3.174199    1.031413   -0.320700
     17          1           0        2.745000    0.822868   -1.427180
 ---------------------------------------------------------------------

 SCF Done:  E(UB3LYP) =  -1289.47602230     A.U. after   19 cycles

 The electronic state is 2-A.
 Alpha  occ. eigenvalues --  -77.12182 -77.10961 -19.10786 -19.09775 -19.05469
 Alpha  occ. eigenvalues --  -19.03865 -19.03812 -19.03313 -19.02876 -10.17877
 Alpha  occ. eigenvalues --  -10.13523  -6.57061  -6.55811  -4.73577  -4.73269
 Alpha  occ. eigenvalues --   -4.73219  -4.72245  -4.72055  -4.72026  -0.98289
 Alpha  occ. eigenvalues --   -0.96828  -0.94238  -0.90116  -0.88381  -0.86282
 Alpha  occ. eigenvalues --   -0.85681  -0.70314  -0.57565  -0.51623  -0.48269
 Alpha  occ. eigenvalues --   -0.45769  -0.42185  -0.39084  -0.38110  -0.37314
 Alpha  occ. eigenvalues --   -0.35828  -0.34780  -0.33373  -0.33067  -0.31237
 Alpha  occ. eigenvalues --   -0.30527  -0.30075  -0.27985  -0.26056  -0.24997
 Alpha  occ. eigenvalues --   -0.24725  -0.22881  -0.22311  -0.21894  -0.20945
 Alpha  occ. eigenvalues --   -0.20858  -0.20256  -0.18463   0.04855
 Alpha virt. eigenvalues --    0.10710   0.13628   0.14393   0.17095   0.18046
 Alpha virt. eigenvalues --    0.19277   0.19786   0.21051   0.22364   0.23200
 Alpha virt. eigenvalues --    0.24330   0.25563   0.28036   0.29398   0.31355

  Beta  occ. eigenvalues --  -77.12177 -77.10941 -19.10725 -19.09759 -19.04813
  Beta  occ. eigenvalues --  -19.03856 -19.03802 -19.03229 -19.02798 -10.17825
  Beta  occ. eigenvalues --  -10.13378  -6.57055  -6.55782  -4.73569  -4.73264
  Beta  occ. eigenvalues --   -4.73214  -4.72210  -4.72038  -4.72005  -0.98179
  Beta  occ. eigenvalues --   -0.96706  -0.93455  -0.90063  -0.87596  -0.86257
  Beta  occ. eigenvalues --   -0.85484  -0.70143  -0.57339  -0.51390  -0.47997
  Beta  occ. eigenvalues --   -0.45301  -0.41860  -0.39027  -0.37829  -0.37083
  Beta  occ. eigenvalues --   -0.35759  -0.34633  -0.33259  -0.32785  -0.31193
  Beta  occ. eigenvalues --   -0.30348  -0.29720  -0.27895  -0.26006  -0.24841
  Beta  occ. eigenvalues --   -0.24386  -0.22641  -0.22192  -0.21701  -0.20842
  Beta  occ. eigenvalues --   -0.20772  -0.20037  -0.18364
  Beta virt. eigenvalues --    0.10383   0.13399   0.14043   0.14703   0.18401
  Beta virt. eigenvalues --    0.19036   0.19601   0.20612   0.21647   0.22569
  Beta virt. eigenvalues --    0.23582   0.24729   0.25945   0.28194   0.29804

 Mulliken charges and spin densities:
               1          2
     1  C   -0.233080  -0.028611
     2  H    0.010581   0.070660
     3  H    0.027853   0.044440
     4  C   -0.101348   0.023091
     5  O   -0.618193  -0.004529
     6  H    0.278145   0.022057
     7  P    0.793364   0.158088
     8  P    0.920463   0.029501
     9  O   -0.732223   0.001374
    10  O   -0.721190  -0.001302
    11  O   -0.642737  -0.004659
    12  O   -0.479135  -0.077451
    13  O   -0.712259  -0.000412
    14  O   -0.737016  -0.000781
    15  H    0.026230   0.036320
    16  H    0.272245   0.039342
    17  H   -0.351701   0.692873
 Sum of Mulliken charges =  -3.00000   1.00000

 Dipole moment (field-independent basis, Debye):
    X=             -7.4954    Y=              5.9415    Z=              2.2590  Tot=              9.8278
 There are a total of      380640 grid points.
 ElSum from          density=      106.9999937077
 ElSum from atomic densities=      103.9999921406
 Hirshfeld populations at iteration   1 (CA, CB, DipXYZ):
               1          2          3          4          5
     1  C    3.094949   3.043981  -0.032972  -0.013776   0.033589
     2  H    0.533481   0.489953  -0.032036  -0.005701  -0.077569
     3  H    0.525241   0.493709   0.042298   0.084076   0.026179
     4  C    3.026530   3.001147   0.000821   0.069584   0.053790
     5  O    4.154953   4.147099   0.072213  -0.140797  -0.093305

 Normal termination of Gaussian 16 at Mon Feb  8 14:39:26 2021.
