 Gaussian 16, Revision A.03,
 Gaussian 16:  EM64L-G16RevA.03 25-Dec-2016

 ----------------------------------------------------------------------
 #t B3LYP/6-31G(d,p) scrf=(solvent=water) # Gfinput IOP(6/7=3) Pop=hirs
 hfeld Density Test # Units(Ang,Deg)
 ----------------------------------------------------------------------
 -------------------
 eti-2dp-opt-g09.log
 -------------------
 Symbolic Z-matrix:
 Charge = -1 Multiplicity = 2

                         Standard orientation:
 ---------------------------------------------------------------------
 Center     Atomic      Atomic             Coordinates (Angstroms)
 Number     Number       Type             X           Y           Z
 ---------------------------------------------------------------------
      1          6           0       -0.036779    1.863110   -0.819110
      2          1           0       -0.056429    1.530090   -1.859910
      3          1           0        0.839102    2.498120   -0.663580
      4          6           0       -0.007820    0.669010    0.136180
      5          8           0        0.019051    1.184540    1.485910
      6          1           0        0.569950    0.527050    1.957890
      7         15           0        1.556859   -0.362081   -0.027550
      8         15           0       -1.549941   -0.374428   -0.084340
      9          8           0        1.905239   -0.753661    1.401510
     10          8           0       -1.523272   -1.531938    0.890460
     11          8           0       -2.722670    0.696933    0.466580
     12          8           0        2.717150    0.761908   -0.461970
     13          8           0        1.471889   -1.388121   -1.134930
     14          8           0       -1.845201   -0.596488   -1.556550
     15          1           0       -0.937108    2.459991   -0.638670
     16          1           0       -3.174199    1.031413   -0.320700
     17          1           0        2.745000    0.822868   -1.427180
 ---------------------------------------------------------------------

 SCF Done:  E(UB3LYP) =  -1289.33402649     A.U. after   26 cycles

 The electronic state is 2-A.
 Alpha  occ. eigenvalues --  -77.20408 -77.19787 -19.22208 -19.17037 -19.16890
 Alpha  occ. eigenvalues --  -19.13068 -19.11138 -19.11059 -19.10705 -10.29430
 Alpha  occ. eigenvalues --  -10.20042  -6.65385  -6.64692  -4.81782  -4.81730
 Alpha  occ. eigenvalues --   -4.81510  -4.81114  -4.81006  -4.80842  -1.08341
 Alpha  occ. eigenvalues --   -1.04253  -1.03762  -0.97560  -0.96585  -0.94050
 Alpha  occ. eigenvalues --   -0.93106  -0.78795  -0.65931  -0.60149  -0.56895
 Alpha  occ. eigenvalues --   -0.54536  -0.50413  -0.46074  -0.45868  -0.45438
 Alpha  occ. eigenvalues --   -0.42723  -0.41439  -0.40797  -0.39978  -0.38547
 Alpha  occ. eigenvalues --   -0.38359  -0.37161  -0.36660  -0.33682  -0.32883
 Alpha  occ. eigenvalues --   -0.31635  -0.30880  -0.29869  -0.29226  -0.28563
 Alpha  occ. eigenvalues --   -0.28097  -0.27703  -0.27190
 Alpha virt. eigenvalues --    0.04759   0.06273   0.07981   0.08229   0.11895
 Alpha virt. eigenvalues --    0.12937   0.14092   0.14272   0.14766   0.16404
 Alpha virt. eigenvalues --    0.18064   0.18721   0.20087   0.21883   0.22347

  Beta  occ. eigenvalues --  -77.20411 -77.19786 -19.21521 -19.16925 -19.16821
  Beta  occ. eigenvalues --  -19.12529 -19.10879 -19.10822 -19.10597 -10.29094
  Beta  occ. eigenvalues --  -10.20038  -6.65390  -6.64690  -4.81809  -4.81684
  Beta  occ. eigenvalues --   -4.81533  -4.81122  -4.80978  -4.80849  -1.06973
  Beta  occ. eigenvalues --   -1.03810  -1.03441  -0.96742  -0.96189  -0.93076
  Beta  occ. eigenvalues --   -0.92644  -0.78015  -0.65134  -0.59192  -0.56428
  Beta  occ. eigenvalues --   -0.54238  -0.49408  -0.45450  -0.45320  -0.45049
  Beta  occ. eigenvalues --   -0.42114  -0.41022  -0.40483  -0.39445  -0.38045
  Beta  occ. eigenvalues --   -0.37457  -0.36790  -0.33988  -0.33169  -0.31799
  Beta  occ. eigenvalues --   -0.31064  -0.29801  -0.28613  -0.27945  -0.27409
  Beta  occ. eigenvalues --   -0.27125  -0.26638
  Beta virt. eigenvalues --   -0.21090   0.05142   0.06737   0.08265   0.08569
  Beta virt. eigenvalues --    0.12446   0.13424   0.14377   0.14545   0.15042
  Beta virt. eigenvalues --    0.16964   0.18227   0.18934   0.20258   0.22204

 Mulliken charges and spin densities:
               1          2
     1  C   -0.343686  -0.001846
     2  H    0.151656   0.000101
     3  H    0.153630   0.013097
     4  C   -0.123869   0.200107
     5  O   -0.439320   0.252226
     6  H    0.354669  -0.005134
     7  P    1.033206   0.003018
     8  P    1.069562   0.009180
     9  O   -0.663750   0.042287
    10  O   -0.615260   0.103861
    11  O   -0.611324   0.038852
    12  O   -0.598169   0.023250
    13  O   -0.619041   0.095941
    14  O   -0.590217   0.215774
    15  H    0.144825   0.010241
    16  H    0.348477  -0.000818
    17  H    0.348612  -0.000137
 Sum of Mulliken charges =  -1.00000   1.00000

 Dipole moment (field-independent basis, Debye):
    X=             -0.8520    Y=              9.7228    Z=             -2.9592  Tot=             10.1988
 There are a total of      380640 grid points.
 ElSum from          density=      104.9999937813
 ElSum from atomic densities=      103.9999921406
 Hirshfeld populations at iteration   1 (CA, CB, DipXYZ):
               1          2          3          4          5
     1  C    3.049035   3.032873   0.001934   0.021244  -0.018605
     2  H    0.476264   0.475243   0.008504  -0.020232  -0.151109
     3  H    0.480571   0.471131   0.104680   0.110659   0.005354
     4  C    3.056234   2.897996  -0.012508   0.057664   0.051390
     5  O    4.182475   3.948983   0.056224  -0.102067  -0.024083

 Normal termination of Gaussian 16 at Mon Feb  8 14:41:03 2021.
