 Gaussian 16, Revision A.03,
 Gaussian 16:  EM64L-G16RevA.03 25-Dec-2016

 -----------------------------------------------------------------
 #P B3LYP/6-31G(d,p) # Pop=chelp # Gfinput IOP(6/7=3) Density Test
 -----------------------------------------------------------------

 ----------------------
 etidronate-opt-g09.log
 ----------------------
 Symbolic Z-matrix:
 Charge =  0 Multiplicity = 1

                         Standard orientation:
 ---------------------------------------------------------------------
 Center     Atomic      Atomic             Coordinates (Angstroms)
 Number     Number       Type             X           Y           Z
 ---------------------------------------------------------------------
      1          6           0        0.026403    0.804161    0.144190
      2          6           0        0.003026    1.952511   -0.870160
      3          1           0       -0.014775    1.575111   -1.896700
      4          1           0       -0.872163    2.581243   -0.693690
      5          1           0        0.908577    2.547669   -0.737470
      6          8           0        0.010244    1.379991    1.436430
      7          1           0        0.120593    0.664281    2.081730
      8         15           0       -1.464319   -0.282966   -0.090940
      9         15           0        1.613431   -0.166642   -0.100370
     10          8           0       -1.706890   -0.822275    1.407770
     11          1           0       -2.238662   -1.632054    1.422430
     12          8           0       -2.750077    0.668317   -0.344120
     13          1           0       -3.018297    0.637898   -1.274620
     14          8           0        1.372759   -1.087752   -1.385380
     15          1           0        0.439068   -1.413090   -1.450140
     16          8           0        1.508279   -1.129542    1.218960
     17          1           0        2.394919   -1.311284    1.565730
     18          8           0        2.851963    0.641375   -0.155050
     19          8           0       -1.302841   -1.330826   -1.152590
 ---------------------------------------------------------------------

 SCF Done:  E(RB3LYP) =  -1290.45542089     A.U. after   14 cycles

 The electronic state is 1-A.
 Alpha  occ. eigenvalues --  -77.24950 -77.21955 -19.21615 -19.21420 -19.19329
 Alpha  occ. eigenvalues --  -19.17871 -19.17421 -19.14886 -19.11079 -10.28326
 Alpha  occ. eigenvalues --  -10.20368  -6.69938  -6.66948  -4.86367  -4.86263
 Alpha  occ. eigenvalues --   -4.86017  -4.83376  -4.83243  -4.83069  -1.10960
 Alpha  occ. eigenvalues --   -1.07848  -1.06335  -1.05042  -1.03206  -0.99527
 Alpha  occ. eigenvalues --   -0.96009  -0.78865  -0.68974  -0.65340  -0.60369
 Alpha  occ. eigenvalues --   -0.57856  -0.56126  -0.54520  -0.51533  -0.49490
 Alpha  occ. eigenvalues --   -0.45486  -0.45292  -0.43894  -0.42451  -0.41698
 Alpha  occ. eigenvalues --   -0.41188  -0.40434  -0.39781  -0.38243  -0.37574
 Alpha  occ. eigenvalues --   -0.36783  -0.34830  -0.34208  -0.33580  -0.32807
 Alpha  occ. eigenvalues --   -0.30233  -0.29111  -0.27374
 Alpha virt. eigenvalues --    0.00682   0.03032   0.04748   0.05105   0.07537
 Alpha virt. eigenvalues --    0.10141   0.10492   0.11339   0.12150   0.13402
 Alpha virt. eigenvalues --    0.13550   0.14984   0.16298   0.18476   0.19924

 Mulliken charges:
               1
     1  C   -0.128771
     2  C   -0.348625
     3  H    0.127881
     4  H    0.138527
     5  H    0.168246
     6  O   -0.517585
     7  H    0.335634
     8  P    1.091803
     9  P    1.106815
    10  O   -0.551047
    11  H    0.357296
    12  O   -0.539885
    13  H    0.354002
    14  O   -0.575931
    15  H    0.372647
    16  O   -0.600613
    17  H    0.350616
    18  O   -0.533496
    19  O   -0.607514
 Sum of Mulliken charges =  -0.00000

 Dipole moment (field-independent basis, Debye):
    X=             -4.2343    Y=             -1.4178    Z=              1.1596  Tot=              4.6134
 Quadrupole moment (field-independent basis, Debye-Ang):
   XX=            -78.8108   YY=            -76.7472   ZZ=            -73.1234
   XY=             -3.1522   XZ=              8.1343   YZ=            -10.2758

 ESP charges:
               1
     1  C    0.318199
     2  C   -0.340936
     3  H    0.045134
     4  H    0.099395
     5  H    0.137347
     6  O   -0.605716
     7  H    0.411326
     8  P    1.105706
     9  P    0.941983
    10  O   -0.612410
    11  H    0.405740
    12  O   -0.556206
    13  H    0.375821
    14  O   -0.538456
    15  H    0.373045
    16  O   -0.727074
    17  H    0.468228
    18  O   -0.610491
    19  O   -0.690635
 Sum of ESP charges =   0.00000

 1\1\GINC-BATAGIN2\SP\RB3LYP\6-31G(d,p)\C2H8O7P2\ORISON\21-Jan-2021\0\\
 #P B3LYP/6-31G(d,p) # Pop=chelp # Gfinput IOP(6/7=3) Density Test\\eti
 dronate-opt-g09.log\\0,1\C,0,-0.0264,0.80416,-0.14419\C,0,-0.00302,1.9
 5251,0.87016\H,0,0.01478,1.57511,1.8967\H,0,0.87217,2.58124,0.69369\H,
 0,-0.90857,2.54767,0.73747\O,0,-0.01024,1.37999,-1.43643\H,0,-0.12059,
 0.66428,-2.08173\P,0,1.46432,-0.28297,0.09094\P,0,-1.61343,-0.16664,0.
 10037\O,0,1.70689,-0.82228,-1.40777\H,0,2.23866,-1.63206,-1.42243\O,0,
 2.75008,0.66831,0.34412\H,0,3.0183,0.63789,1.27462\O,0,-1.37276,-1.087

 Normal termination of Gaussian 16 at Thu Jan 21 22:39:47 2021.
