 Gaussian 16, Revision A.03,
 Gaussian 16:  EM64L-G16RevA.03 25-Dec-2016

 ----------------------------------------------------------------------
 #t B3LYP/6-31G(d,p) # Gfinput IOP(6/7=3) Pop=hirshfeld Density Test #
 Units(Ang,Deg)
 ----------------------------------------------------------------------
 ----------------------
 etidronate-opt-g09.log
 ----------------------
 Symbolic Z-matrix:
 Charge =  1 Multiplicity = 2

                         Standard orientation:
 ---------------------------------------------------------------------
 Center     Atomic      Atomic             Coordinates (Angstroms)
 Number     Number       Type             X           Y           Z
 ---------------------------------------------------------------------
      1          6           0        0.026403    0.804161    0.144190
      2          6           0        0.003026    1.952511   -0.870160
      3          1           0       -0.014775    1.575111   -1.896700
      4          1           0       -0.872163    2.581243   -0.693690
      5          1           0        0.908577    2.547669   -0.737470
      6          8           0        0.010244    1.379991    1.436430
      7          1           0        0.120593    0.664281    2.081730
      8         15           0       -1.464319   -0.282966   -0.090940
      9         15           0        1.613431   -0.166642   -0.100370
     10          8           0       -1.706890   -0.822275    1.407770
     11          1           0       -2.238662   -1.632054    1.422430
     12          8           0       -2.750077    0.668317   -0.344120
     13          1           0       -3.018297    0.637898   -1.274620
     14          8           0        1.372759   -1.087752   -1.385380
     15          1           0        0.439068   -1.413090   -1.450140
     16          8           0        1.508279   -1.129542    1.218960
     17          1           0        2.394919   -1.311284    1.565730
     18          8           0        2.851963    0.641375   -0.155050
     19          8           0       -1.302841   -1.330826   -1.152590
 ---------------------------------------------------------------------

 SCF Done:  E(UB3LYP) =  -1290.10454992     A.U. after   32 cycles

 The electronic state is 2-A.
 Alpha  occ. eigenvalues --  -77.44629 -77.43258 -19.44286 -19.38975 -19.38836
 Alpha  occ. eigenvalues --  -19.38403 -19.37127 -19.35183 -19.34220 -10.51131
 Alpha  occ. eigenvalues --  -10.38217  -6.89521  -6.88347  -5.05855  -5.05819
 Alpha  occ. eigenvalues --   -5.05769  -5.04676  -5.04658  -5.04539  -1.30835
 Alpha  occ. eigenvalues --   -1.27995  -1.27123  -1.23387  -1.22292  -1.19133
 Alpha  occ. eigenvalues --   -1.18174  -0.99905  -0.87892  -0.84956  -0.80847
 Alpha  occ. eigenvalues --   -0.77101  -0.74557  -0.74237  -0.72274  -0.67408
 Alpha  occ. eigenvalues --   -0.65972  -0.64691  -0.62876  -0.61464  -0.60854
 Alpha  occ. eigenvalues --   -0.60353  -0.59150  -0.59042  -0.57606  -0.57042
 Alpha  occ. eigenvalues --   -0.55580  -0.54725  -0.54547  -0.53351  -0.52101
 Alpha  occ. eigenvalues --   -0.51002  -0.50366  -0.50337
 Alpha virt. eigenvalues --   -0.17710  -0.15924  -0.13716  -0.12375  -0.10076
 Alpha virt. eigenvalues --   -0.08445  -0.07801  -0.07029  -0.06335  -0.04917
 Alpha virt. eigenvalues --   -0.03568  -0.02839  -0.01724   0.00651   0.01540

  Beta  occ. eigenvalues --  -77.44602 -77.43270 -19.43465 -19.38865 -19.38791
  Beta  occ. eigenvalues --  -19.38334 -19.37008 -19.34442 -19.33956 -10.50889
  Beta  occ. eigenvalues --  -10.38229  -6.89488  -6.88359  -5.05844  -5.05771
  Beta  occ. eigenvalues --   -5.05709  -5.04701  -5.04659  -5.04552  -1.29493
  Beta  occ. eigenvalues --   -1.27506  -1.26573  -1.23180  -1.22030  -1.17909
  Beta  occ. eigenvalues --   -1.17231  -0.99039  -0.87462  -0.84159  -0.80462
  Beta  occ. eigenvalues --   -0.76766  -0.74326  -0.73951  -0.70899  -0.67059
  Beta  occ. eigenvalues --   -0.65330  -0.64258  -0.62633  -0.60820  -0.60060
  Beta  occ. eigenvalues --   -0.59356  -0.58788  -0.57608  -0.56796  -0.56403
  Beta  occ. eigenvalues --   -0.54607  -0.53909  -0.53053  -0.52607  -0.50625
  Beta  occ. eigenvalues --   -0.49896  -0.48960
  Beta virt. eigenvalues --   -0.42730  -0.17201  -0.15450  -0.13354  -0.11941
  Beta virt. eigenvalues --   -0.09540  -0.08044  -0.07429  -0.06631  -0.06142
  Beta virt. eigenvalues --   -0.04583  -0.03436  -0.02593  -0.01426   0.00815

 Mulliken charges and spin densities:
               1          2
     1  C   -0.174085   0.135183
     2  C   -0.369808  -0.008249
     3  H    0.177493  -0.000202
     4  H    0.199299   0.009601
     5  H    0.214320   0.010717
     6  O   -0.341437   0.303564
     7  H    0.385055  -0.007502
     8  P    1.160685   0.037580
     9  P    1.188854  -0.006086
    10  O   -0.533409   0.015247
    11  H    0.395270   0.000327
    12  O   -0.495084   0.038406
    13  H    0.387071  -0.000577
    14  O   -0.518966   0.042916
    15  H    0.400438  -0.001747
    16  O   -0.568705   0.024201
    17  H    0.390441   0.000869
    18  O   -0.370853   0.301013
    19  O   -0.526579   0.104738
 Sum of Mulliken charges =   1.00000   1.00000

 Dipole moment (field-independent basis, Debye):
    X=             -2.5517    Y=             -0.0632    Z=              1.6021  Tot=              3.0136
 There are a total of      426364 grid points.
 ElSum from          density=      105.0000036659
 ElSum from atomic densities=      106.0000294805
 Hirshfeld populations at iteration   1 (CA, CB, DipXYZ):
               1          2          3          4          5
     1  C    3.033774   2.907925   0.002687   0.058718   0.063583
     2  C    3.034669   3.028561   0.008110   0.043391  -0.027102
     3  H    0.466581   0.466821   0.000178  -0.030423  -0.163258
     4  H    0.468030   0.461475  -0.116790   0.121968   0.011940
     5  H    0.464648   0.457965   0.129424   0.114700   0.005307

 Normal termination of Gaussian 16 at Fri Jan 22 02:12:59 2021.
