 Gaussian 16, Revision A.03,
 Gaussian 16:  EM64L-G16RevA.03 25-Dec-2016

 ----------------------------------------------------------------------
 #t B3LYP/6-31G(d,p) # Gfinput IOP(6/7=3) Pop=hirshfeld Density Test #
 Units(Ang,Deg)
 ----------------------------------------------------------------------
 ----------------------
 etidronate-opt-g09.log
 ----------------------
 Symbolic Z-matrix:
 Charge = -1 Multiplicity = 2

                         Standard orientation:
 ---------------------------------------------------------------------
 Center     Atomic      Atomic             Coordinates (Angstroms)
 Number     Number       Type             X           Y           Z
 ---------------------------------------------------------------------
      1          6           0        0.026403    0.804161    0.144190
      2          6           0        0.003026    1.952511   -0.870160
      3          1           0       -0.014775    1.575111   -1.896700
      4          1           0       -0.872163    2.581243   -0.693690
      5          1           0        0.908577    2.547669   -0.737470
      6          8           0        0.010244    1.379991    1.436430
      7          1           0        0.120593    0.664281    2.081730
      8         15           0       -1.464319   -0.282966   -0.090940
      9         15           0        1.613431   -0.166642   -0.100370
     10          8           0       -1.706890   -0.822275    1.407770
     11          1           0       -2.238662   -1.632054    1.422430
     12          8           0       -2.750077    0.668317   -0.344120
     13          1           0       -3.018297    0.637898   -1.274620
     14          8           0        1.372759   -1.087752   -1.385380
     15          1           0        0.439068   -1.413090   -1.450140
     16          8           0        1.508279   -1.129542    1.218960
     17          1           0        2.394919   -1.311284    1.565730
     18          8           0        2.851963    0.641375   -0.155050
     19          8           0       -1.302841   -1.330826   -1.152590
 ---------------------------------------------------------------------

 SCF Done:  E(UB3LYP) =  -1290.38386937     A.U. after   21 cycles

 The electronic state is 2-A.
 Alpha  occ. eigenvalues --  -77.05702 -77.05119 -19.03267 -19.02120 -19.01283
 Alpha  occ. eigenvalues --  -19.00940 -19.00853 -18.96949 -18.95554 -10.10422
 Alpha  occ. eigenvalues --  -10.04990  -6.50705  -6.50165  -4.67139  -4.66984
 Alpha  occ. eigenvalues --   -4.66801  -4.66589  -4.66465  -4.66251  -0.92366
 Alpha  occ. eigenvalues --   -0.91134  -0.88299  -0.87602  -0.86451  -0.81582
 Alpha  occ. eigenvalues --   -0.80701  -0.62410  -0.51577  -0.47935  -0.43882
 Alpha  occ. eigenvalues --   -0.40896  -0.38330  -0.37042  -0.34417  -0.31216
 Alpha  occ. eigenvalues --   -0.29721  -0.27908  -0.27072  -0.26201  -0.25863
 Alpha  occ. eigenvalues --   -0.25239  -0.23943  -0.22316  -0.21470  -0.20784
 Alpha  occ. eigenvalues --   -0.18903  -0.18539  -0.17682  -0.17031  -0.14924
 Alpha  occ. eigenvalues --   -0.14328  -0.13988  -0.10641   0.13503
 Alpha virt. eigenvalues --    0.18216   0.19853   0.21686   0.22986   0.25426
 Alpha virt. eigenvalues --    0.26525   0.27122   0.28547   0.28799   0.29345
 Alpha virt. eigenvalues --    0.30987   0.31465   0.33885   0.35886   0.36376

  Beta  occ. eigenvalues --  -77.05679 -77.05052 -19.03138 -19.02094 -19.00971
  Beta  occ. eigenvalues --  -19.00751 -19.00586 -18.96918 -18.95467 -10.10267
  Beta  occ. eigenvalues --  -10.04970  -6.50668  -6.50071  -4.67112  -4.66952
  Beta  occ. eigenvalues --   -4.66780  -4.66539  -4.66357  -4.66162  -0.92121
  Beta  occ. eigenvalues --   -0.90524  -0.88071  -0.87377  -0.85671  -0.81406
  Beta  occ. eigenvalues --   -0.80456  -0.62157  -0.51214  -0.47468  -0.43639
  Beta  occ. eigenvalues --   -0.40754  -0.37929  -0.36619  -0.34179  -0.31014
  Beta  occ. eigenvalues --   -0.29575  -0.27791  -0.26902  -0.26023  -0.25707
  Beta  occ. eigenvalues --   -0.25105  -0.23783  -0.22122  -0.21278  -0.20506
  Beta  occ. eigenvalues --   -0.18755  -0.18250  -0.17359  -0.16871  -0.14788
  Beta  occ. eigenvalues --   -0.14165  -0.13864  -0.10435
  Beta virt. eigenvalues --    0.18284   0.19702   0.21257   0.22692   0.24640
  Beta virt. eigenvalues --    0.26237   0.27131   0.27540   0.28931   0.29191
  Beta virt. eigenvalues --    0.29836   0.31654   0.31742   0.34183   0.36114

 Mulliken charges and spin densities:
               1          2
     1  C   -0.114524   0.086321
     2  C   -0.317233  -0.008964
     3  H    0.082040   0.023924
     4  H    0.102200   0.008533
     5  H    0.117853   0.000775
     6  O   -0.520017  -0.014940
     7  H    0.260928   0.069229
     8  P    0.912135   0.244503
     9  P    0.994283   0.113355
    10  O   -0.485341  -0.041703
    11  H    0.113413   0.245213
    12  O   -0.482877  -0.042878
    13  H    0.117485   0.236972
    14  O   -0.594531  -0.004448
    15  H    0.342443   0.019099
    16  O   -0.570824  -0.011193
    17  H    0.249350   0.079994
    18  O   -0.566551  -0.001208
    19  O   -0.640233  -0.002583
 Sum of Mulliken charges =  -1.00000   1.00000

 Dipole moment (field-independent basis, Debye):
    X=             -0.2228    Y=             -0.5839    Z=              0.4812  Tot=              0.7888
 There are a total of      426364 grid points.
 ElSum from          density=      107.0000085545
 ElSum from atomic densities=      106.0000294805
 Hirshfeld populations at iteration   1 (CA, CB, DipXYZ):
               1          2          3          4          5
     1  C    3.042516   2.972653   0.001946   0.081803   0.066522
     2  C    3.059430   3.041607   0.007692  -0.001546   0.000610
     3  H    0.497843   0.482595   0.003893  -0.033483  -0.120578
     4  H    0.492984   0.485357  -0.090374   0.095247   0.016789
     5  H    0.487603   0.484247   0.104419   0.089261   0.010124

 Normal termination of Gaussian 16 at Fri Jan 22 02:11:36 2021.
