 Gaussian 16, Revision A.03,
 Gaussian 16:  EM64L-G16RevA.03 25-Dec-2016

 ----------------------------------------------------------------------
 #t B3LYP/6-31G(d,p) scrf=(solvent=water) # Gfinput IOP(6/7=3) Pop=hirs
 hfeld Density Test # Units(Ang,Deg)
 ----------------------------------------------------------------------
 ------------------------
 w-etidronate-opt-g09.log
 ------------------------
 Symbolic Z-matrix:
 Charge =  1 Multiplicity = 2

                         Standard orientation:
 ---------------------------------------------------------------------
 Center     Atomic      Atomic             Coordinates (Angstroms)
 Number     Number       Type             X           Y           Z
 ---------------------------------------------------------------------
      1          6           0       -0.001711    0.687142   -0.198640
      2          6           0       -0.003292    1.991592    0.608760
      3          1           0       -0.001532    1.790932    1.682220
      4          1           0        0.879467    2.579562    0.350060
      5          1           0       -0.892893    2.573091    0.356510
      6          8           0        0.000329    1.041312   -1.574790
      7          1           0        0.057509    0.224672   -2.096250
      8         15           0        1.548400   -0.270687    0.197820
      9         15           0       -1.558910   -0.256710    0.199060
     10          8           0        1.589791   -1.247367   -1.085140
     11          1           0        2.461961   -1.639786   -1.250350
     12          8           0        2.762239    0.750854   -0.131240
     13          1           0        3.196149    1.064394    0.677700
     14          8           0       -1.464719   -1.403600   -0.930670
     15          1           0       -2.296149   -1.883810   -1.072590
     16          8           0       -2.749801    0.684449   -0.368810
     17          1           0       -3.284021    1.051399    0.352820
     18          8           0       -1.744320   -0.678010    1.614050
     19          8           0        1.614880   -0.887877    1.549840
 ---------------------------------------------------------------------

 SCF Done:  E(UB3LYP) =  -1290.19347199     A.U. after   21 cycles

 The electronic state is 2-A.
 Alpha  occ. eigenvalues --  -77.29415 -77.29351 -19.29572 -19.23802 -19.23773
 Alpha  occ. eigenvalues --  -19.23684 -19.23639 -19.20985 -19.20524 -10.36155
 Alpha  occ. eigenvalues --  -10.23662  -6.74357  -6.74278  -4.90715  -4.90644
 Alpha  occ. eigenvalues --   -4.90628  -4.90592  -4.90553  -4.90506  -1.15927
 Alpha  occ. eigenvalues --   -1.13123  -1.12762  -1.08054  -1.07908  -1.04765
 Alpha  occ. eigenvalues --   -1.04359  -0.85036  -0.73165  -0.71050  -0.65902
 Alpha  occ. eigenvalues --   -0.62273  -0.59924  -0.59493  -0.56942  -0.52956
 Alpha  occ. eigenvalues --   -0.52186  -0.50135  -0.47786  -0.46768  -0.46475
 Alpha  occ. eigenvalues --   -0.45536  -0.44680  -0.44520  -0.42970  -0.41868
 Alpha  occ. eigenvalues --   -0.41586  -0.41340  -0.40113  -0.38615  -0.38040
 Alpha  occ. eigenvalues --   -0.36721  -0.36505  -0.36050
 Alpha virt. eigenvalues --   -0.01755  -0.00964   0.00191   0.01817   0.04714
 Alpha virt. eigenvalues --    0.05580   0.07175   0.08117   0.08442   0.09425
 Alpha virt. eigenvalues --    0.10822   0.11596   0.12413   0.15266   0.15916

  Beta  occ. eigenvalues --  -77.29415 -77.29349 -19.28735 -19.23716 -19.23695
  Beta  occ. eigenvalues --  -19.23651 -19.23612 -19.20329 -19.19936 -10.35968
  Beta  occ. eigenvalues --  -10.23668  -6.74355  -6.74274  -4.90726  -4.90653
  Beta  occ. eigenvalues --   -4.90645  -4.90564  -4.90561  -4.90475  -1.14635
  Beta  occ. eigenvalues --   -1.12843  -1.12002  -1.07897  -1.07757  -1.03408
  Beta  occ. eigenvalues --   -1.03053  -0.84269  -0.72784  -0.70357  -0.65519
  Beta  occ. eigenvalues --   -0.62009  -0.59805  -0.59162  -0.55675  -0.52426
  Beta  occ. eigenvalues --   -0.51599  -0.49596  -0.47511  -0.46201  -0.45743
  Beta  occ. eigenvalues --   -0.44420  -0.44378  -0.42902  -0.42551  -0.41483
  Beta  occ. eigenvalues --   -0.41039  -0.39895  -0.39211  -0.36741  -0.36136
  Beta  occ. eigenvalues --   -0.35782  -0.35031
  Beta virt. eigenvalues --   -0.28124  -0.01310  -0.00514   0.00482   0.02174
  Beta virt. eigenvalues --    0.04958   0.06359   0.07638   0.08348   0.08867
  Beta virt. eigenvalues --    0.09607   0.11001   0.11755   0.12537   0.15386

 Mulliken charges and spin densities:
               1          2
     1  C   -0.147757   0.110236
     2  C   -0.369048  -0.004190
     3  H    0.189962  -0.000754
     4  H    0.193302   0.010316
     5  H    0.192611   0.011290
     6  O   -0.353157   0.308774
     7  H    0.396665  -0.007710
     8  P    1.190578  -0.000169
     9  P    1.193227  -0.004259
    10  O   -0.560319   0.011611
    11  H    0.402612   0.000612
    12  O   -0.537658   0.028296
    13  H    0.395393  -0.000717
    14  O   -0.558836   0.009745
    15  H    0.401569   0.000715
    16  O   -0.537193   0.031340
    17  H    0.395751  -0.000810
    18  O   -0.438658   0.261649
    19  O   -0.449046   0.234024
 Sum of Mulliken charges =   1.00000   1.00000

 Dipole moment (field-independent basis, Debye):
    X=              0.0412    Y=              2.4062    Z=             -3.0395  Tot=              3.8769
 There are a total of      426666 grid points.
 ElSum from          density=      105.0000048236
 ElSum from atomic densities=      106.0000025315
 Hirshfeld populations at iteration   1 (CA, CB, DipXYZ):
               1          2          3          4          5
     1  C    3.023655   2.920903   0.000700   0.041904  -0.068776
     2  C    3.035189   3.027097  -0.000934   0.040557   0.024870
     3  H    0.465366   0.465874   0.002283  -0.001027   0.166174
     4  H    0.468632   0.461458   0.119834   0.114405  -0.022168
     5  H    0.468216   0.460521  -0.123847   0.111653  -0.021671

 Normal termination of Gaussian 16 at Fri Jan 22 02:47:09 2021.
