 Gaussian 16, Revision A.03,
 Gaussian 16:  EM64L-G16RevA.03 25-Dec-2016

 ----------------------------------------------------------------------
 #t B3LYP/6-31G(d,p) scrf=(solvent=water) # Gfinput IOP(6/7=3) Pop=hirs
 hfeld Density Test # Units(Ang,Deg)
 ----------------------------------------------------------------------
 ------------------------
 w-etidronate-opt-g09.log
 ------------------------
 Symbolic Z-matrix:
 Charge = -1 Multiplicity = 2

                         Standard orientation:
 ---------------------------------------------------------------------
 Center     Atomic      Atomic             Coordinates (Angstroms)
 Number     Number       Type             X           Y           Z
 ---------------------------------------------------------------------
      1          6           0       -0.001711    0.687142   -0.198640
      2          6           0       -0.003292    1.991592    0.608760
      3          1           0       -0.001532    1.790932    1.682220
      4          1           0        0.879467    2.579562    0.350060
      5          1           0       -0.892893    2.573091    0.356510
      6          8           0        0.000329    1.041312   -1.574790
      7          1           0        0.057509    0.224672   -2.096250
      8         15           0        1.548400   -0.270687    0.197820
      9         15           0       -1.558910   -0.256710    0.199060
     10          8           0        1.589791   -1.247367   -1.085140
     11          1           0        2.461961   -1.639786   -1.250350
     12          8           0        2.762239    0.750854   -0.131240
     13          1           0        3.196149    1.064394    0.677700
     14          8           0       -1.464719   -1.403600   -0.930670
     15          1           0       -2.296149   -1.883810   -1.072590
     16          8           0       -2.749801    0.684449   -0.368810
     17          1           0       -3.284021    1.051399    0.352820
     18          8           0       -1.744320   -0.678010    1.614050
     19          8           0        1.614880   -0.887877    1.549840
 ---------------------------------------------------------------------

 SCF Done:  E(UB3LYP) =  -1290.45196964     A.U. after   27 cycles

 The electronic state is 2-A.
 Alpha  occ. eigenvalues --  -77.19489 -77.18922 -19.16273 -19.15996 -19.15456
 Alpha  occ. eigenvalues --  -19.15124 -19.14570 -19.09968 -19.09583 -10.23795
 Alpha  occ. eigenvalues --  -10.17771  -6.64477  -6.63919  -4.80928  -4.80779
 Alpha  occ. eigenvalues --   -4.80540  -4.80365  -4.80213  -4.79987  -1.06040
 Alpha  occ. eigenvalues --   -1.05193  -1.01652  -1.01093  -1.00333  -0.94932
 Alpha  occ. eigenvalues --   -0.94470  -0.75648  -0.65111  -0.62443  -0.56918
 Alpha  occ. eigenvalues --   -0.54194  -0.52597  -0.50465  -0.47625  -0.44711
 Alpha  occ. eigenvalues --   -0.44095  -0.40903  -0.40202  -0.39365  -0.38999
 Alpha  occ. eigenvalues --   -0.37986  -0.37632  -0.36051  -0.35022  -0.34550
 Alpha  occ. eigenvalues --   -0.33980  -0.32375  -0.31871  -0.29690  -0.28399
 Alpha  occ. eigenvalues --   -0.28192  -0.27857  -0.24379   0.00955
 Alpha virt. eigenvalues --    0.05480   0.05557   0.08081   0.09057   0.12694
 Alpha virt. eigenvalues --    0.12776   0.13269   0.15111   0.15433   0.15991
 Alpha virt. eigenvalues --    0.17064   0.17633   0.19957   0.21275   0.22678

  Beta  occ. eigenvalues --  -77.19456 -77.18877 -19.16087 -19.15804 -19.15216
  Beta  occ. eigenvalues --  -19.14819 -19.14480 -19.09929 -19.09526 -10.23594
  Beta  occ. eigenvalues --  -10.17746  -6.64427  -6.63851  -4.80897  -4.80734
  Beta  occ. eigenvalues --   -4.80500  -4.80324  -4.80154  -4.79934  -1.05640
  Beta  occ. eigenvalues --   -1.04663  -1.01396  -1.00656  -0.99702  -0.94783
  Beta  occ. eigenvalues --   -0.94274  -0.75380  -0.64779  -0.62057  -0.56655
  Beta  occ. eigenvalues --   -0.53890  -0.52279  -0.50045  -0.47450  -0.44553
  Beta  occ. eigenvalues --   -0.43907  -0.40676  -0.40010  -0.39141  -0.38869
  Beta  occ. eigenvalues --   -0.37863  -0.37486  -0.35844  -0.34788  -0.34330
  Beta  occ. eigenvalues --   -0.33744  -0.32126  -0.31629  -0.29531  -0.28299
  Beta  occ. eigenvalues --   -0.27953  -0.27725  -0.24214
  Beta virt. eigenvalues --    0.05374   0.06514   0.07521   0.08569   0.10513
  Beta virt. eigenvalues --    0.13215   0.13600   0.14203   0.15648   0.15852
  Beta virt. eigenvalues --    0.16563   0.17663   0.18202   0.20486   0.21516

 Mulliken charges and spin densities:
               1          2
     1  C   -0.092681   0.080598
     2  C   -0.333170  -0.003361
     3  H    0.108264   0.020976
     4  H    0.110683   0.008941
     5  H    0.111213   0.005992
     6  O   -0.537927  -0.016071
     7  H    0.260058   0.081332
     8  P    0.893592   0.214337
     9  P    0.943147   0.160281
    10  O   -0.524713  -0.032433
    11  H    0.178127   0.188741
    12  O   -0.532425  -0.029641
    13  H    0.211398   0.151531
    14  O   -0.548985  -0.019635
    15  H    0.256479   0.107678
    16  O   -0.546925  -0.019786
    17  H    0.256495   0.105447
    18  O   -0.606098  -0.002297
    19  O   -0.606533  -0.002631
 Sum of Mulliken charges =  -1.00000   1.00000

 Dipole moment (field-independent basis, Debye):
    X=             -1.5927    Y=              2.7818    Z=             -2.5472  Tot=              4.0943
 There are a total of      426666 grid points.
 ElSum from          density=      107.0000076396
 ElSum from atomic densities=      106.0000025315
 Hirshfeld populations at iteration   1 (CA, CB, DipXYZ):
               1          2          3          4          5
     1  C    3.044448   2.973005  -0.000020   0.063533  -0.073298
     2  C    3.060403   3.040122  -0.002200   0.006237   0.009283
     3  H    0.493565   0.480045   0.000616  -0.002845   0.131368
     4  H    0.491018   0.482813   0.093737   0.094847  -0.022444
     5  H    0.489473   0.482672  -0.100199   0.092236  -0.021316

 Normal termination of Gaussian 16 at Fri Jan 22 02:45:39 2021.
