 Gaussian 16, Revision A.03,
 Gaussian 16:  EM64L-G16RevA.03 25-Dec-2016

 ----------------------------------------------------------------------
 #t B3LYP/6-31G(d,p) scrf=(solvent=water) # Gfinput IOP(6/7=3) Pop=hirs
 hfeld Density Test # Units(Ang,Deg)
 ----------------------------------------------------------------------
 ------------------------
 w-etidronate-opt-g09.log
 ------------------------
 Symbolic Z-matrix:
 Charge =  0 Multiplicity = 1

                         Standard orientation:
 ---------------------------------------------------------------------
 Center     Atomic      Atomic             Coordinates (Angstroms)
 Number     Number       Type             X           Y           Z
 ---------------------------------------------------------------------
      1          6           0       -0.001711    0.687142   -0.198640
      2          6           0       -0.003292    1.991592    0.608760
      3          1           0       -0.001532    1.790932    1.682220
      4          1           0        0.879467    2.579562    0.350060
      5          1           0       -0.892893    2.573091    0.356510
      6          8           0        0.000329    1.041312   -1.574790
      7          1           0        0.057509    0.224672   -2.096250
      8         15           0        1.548400   -0.270687    0.197820
      9         15           0       -1.558910   -0.256710    0.199060
     10          8           0        1.589791   -1.247367   -1.085140
     11          1           0        2.461961   -1.639786   -1.250350
     12          8           0        2.762239    0.750854   -0.131240
     13          1           0        3.196149    1.064394    0.677700
     14          8           0       -1.464719   -1.403600   -0.930670
     15          1           0       -2.296149   -1.883810   -1.072590
     16          8           0       -2.749801    0.684449   -0.368810
     17          1           0       -3.284021    1.051399    0.352820
     18          8           0       -1.744320   -0.678010    1.614050
     19          8           0        1.614880   -0.887877    1.549840
 ---------------------------------------------------------------------

 SCF Done:  E(RB3LYP) =  -1290.47101419     A.U. after   13 cycles

 The electronic state is 1-A.
 Alpha  occ. eigenvalues --  -77.23316 -77.23159 -19.19829 -19.19734 -19.19612
 Alpha  occ. eigenvalues --  -19.19414 -19.17809 -19.12667 -19.12529 -10.28066
 Alpha  occ. eigenvalues --  -10.19987  -6.68231  -6.68080  -4.84689  -4.84535
 Alpha  occ. eigenvalues --   -4.84533  -4.84385  -4.84327  -4.84177  -1.09377
 Alpha  occ. eigenvalues --   -1.08757  -1.04840  -1.04183  -1.04077  -0.97604
 Alpha  occ. eigenvalues --   -0.97252  -0.78534  -0.68150  -0.65941  -0.59921
 Alpha  occ. eigenvalues --   -0.57517  -0.56090  -0.53618  -0.50841  -0.47463
 Alpha  occ. eigenvalues --   -0.47035  -0.43839  -0.43102  -0.42387  -0.41406
 Alpha  occ. eigenvalues --   -0.40345  -0.40292  -0.38966  -0.37936  -0.37433
 Alpha  occ. eigenvalues --   -0.37153  -0.35221  -0.35003  -0.32465  -0.30979
 Alpha  occ. eigenvalues --   -0.30799  -0.30495  -0.27330
 Alpha virt. eigenvalues --    0.02742   0.03790   0.05099   0.05583   0.08213
 Alpha virt. eigenvalues --    0.10647   0.11348   0.11955   0.12759   0.12999
 Alpha virt. eigenvalues --    0.14141   0.15030   0.15958   0.18305   0.19371

 Mulliken charges:
               1
     1  C   -0.110777
     2  C   -0.355443
     3  H    0.149904
     4  H    0.144944
     5  H    0.143868
     6  O   -0.540689
     7  H    0.347240
     8  P    1.102865
     9  P    1.102966
    10  O   -0.582632
    11  H    0.377594
    12  O   -0.575112
    13  H    0.372728
    14  O   -0.583048
    15  H    0.376173
    16  O   -0.576230
    17  H    0.371771
    18  O   -0.584100
    19  O   -0.582022
 Sum of Mulliken charges =  -0.00000

 Dipole moment (field-independent basis, Debye):
    X=              0.3103    Y=              1.8820    Z=             -3.5250  Tot=              4.0080
 There are a total of      426666 grid points.
 ElSum from          density=      106.0000053702
 ElSum from atomic densities=      106.0000025315
 Hirshfeld populations at iteration   1 (CA, CB, DipXYZ):
               1          2          3          4          5
     1  C    2.995145   2.995145   0.000900   0.051567  -0.059618
     2  C    3.040399   3.040399  -0.001107   0.019597   0.017012
     3  H    0.475924   0.475924   0.002375  -0.004803   0.151544
     4  H    0.477496   0.477496   0.110306   0.100624  -0.022132
     5  H    0.476950   0.476950  -0.114070   0.097911  -0.021738

 1\1\GINC-BATAGIN2\SP\RB3LYP\6-31G(d,p)\C2H8O7P2\ORISON\22-Jan-2021\0\\
 #t B3LYP/6-31G(d,p) scrf=(solvent=water) # Gfinput IOP(6/7=3) Pop=hirs
 hfeld Density Test # Units(Ang,Deg)\\w-etidronate-opt-g09.log\\0,1\C,0
 ,-0.00171,0.68714,-0.19864\C,0,-0.00329,1.99159,0.60876\H,0,-0.00153,1
 .79093,1.68222\H,0,0.87947,2.57956,0.35006\H,0,-0.89289,2.57309,0.3565
 1\O,0,0.00033,1.04131,-1.57479\H,0,0.05751,0.22467,-2.09625\P,0,1.5484
 ,-0.27069,0.19782\P,0,-1.55891,-0.25671,0.19906\O,0,1.58979,-1.24737,-
 1.08514\H,0,2.46196,-1.63979,-1.25035\O,0,2.76224,0.75085,-0.13124\H,0

 Normal termination of Gaussian 16 at Fri Jan 22 02:47:50 2021.
