 Gaussian 16, Revision A.03,
 Gaussian 16:  EM64L-G16RevA.03 25-Dec-2016

 ----------------------------------------------------------------------
 #P B3LYP/6-31G(d,p) # Opt SCRF=(Solvent=Water) # Gfinput IOP(6/7=3) Po
 p=full Density Test # Units(Ang,Deg)
 ----------------------------------------------------------------------

 -------------------
 Title Card Required
 -------------------
 Symbolic Z-matrix:
 Charge =  0 Multiplicity = 1

 SCF Done:  E(RB3LYP) =  -1290.40975798     A.U. after   13 cycles
 SCF Done:  E(RB3LYP) =  -1290.44480047     A.U. after   11 cycles
 SCF Done:  E(RB3LYP) =  -1290.45003940     A.U. after   12 cycles
 SCF Done:  E(RB3LYP) =  -1290.46312963     A.U. after   11 cycles
 SCF Done:  E(RB3LYP) =  -1290.46465048     A.U. after   10 cycles
 SCF Done:  E(RB3LYP) =  -1290.46635883     A.U. after   11 cycles
 SCF Done:  E(RB3LYP) =  -1290.46789669     A.U. after   12 cycles
 SCF Done:  E(RB3LYP) =  -1290.46895894     A.U. after   10 cycles
 SCF Done:  E(RB3LYP) =  -1290.46987498     A.U. after   11 cycles
 SCF Done:  E(RB3LYP) =  -1290.47013845     A.U. after   10 cycles
 SCF Done:  E(RB3LYP) =  -1290.47100014     A.U. after    8 cycles
 SCF Done:  E(RB3LYP) =  -1290.47100731     A.U. after    9 cycles
 SCF Done:  E(RB3LYP) =  -1290.47100940     A.U. after    8 cycles
 SCF Done:  E(RB3LYP) =  -1290.47101286     A.U. after    8 cycles
 SCF Done:  E(RB3LYP) =  -1290.47101312     A.U. after    7 cycles
 SCF Done:  E(RB3LYP) =  -1290.47101338     A.U. after    7 cycles
 SCF Done:  E(RB3LYP) =  -1290.47101361     A.U. after    7 cycles
 SCF Done:  E(RB3LYP) =  -1290.47101384     A.U. after    7 cycles
 SCF Done:  E(RB3LYP) =  -1290.47101405     A.U. after    7 cycles
 SCF Done:  E(RB3LYP) =  -1290.47101419     A.U. after    7 cycles
 Optimization completed.
    -- Stationary point found.

                         Standard orientation:
 ---------------------------------------------------------------------
 Center     Atomic      Atomic             Coordinates (Angstroms)
 Number     Number       Type             X           Y           Z
 ---------------------------------------------------------------------
      1          6           0       -0.001708    0.687144   -0.198642
      2          6           0       -0.003294    1.991594    0.608761
      3          1           0       -0.001530    1.790934    1.682223
      4          1           0        0.879473    2.579557    0.350062
      5          1           0       -0.892895    2.573090    0.356507
      6          8           0        0.000331    1.041309   -1.574788
      7          1           0        0.057514    0.224674   -2.096245
      8         15           0        1.548399   -0.270686    0.197820
      9         15           0       -1.558906   -0.256713    0.199059
     10          8           0        1.589786   -1.247370   -1.085138
     11          1           0        2.461958   -1.639791   -1.250345
     12          8           0        2.762236    0.750853   -0.131244
     13          1           0        3.196146    1.064394    0.677695
     14          8           0       -1.464720   -1.403596   -0.930666
     15          1           0       -2.296147   -1.883807   -1.072588
     16          8           0       -2.749796    0.684452   -0.368807
     17          1           0       -3.284024    1.051400    0.352823
     18          8           0       -1.744324   -0.678007    1.614054
     19          8           0        1.614876   -0.887878    1.549836
 ---------------------------------------------------------------------

 The electronic state is 1-A.
 Alpha  occ. eigenvalues --  -77.23316 -77.23159 -19.19829 -19.19734 -19.19612
 Alpha  occ. eigenvalues --  -19.19414 -19.17809 -19.12667 -19.12529 -10.28066
 Alpha  occ. eigenvalues --  -10.19987  -6.68231  -6.68080  -4.84689  -4.84535
 Alpha  occ. eigenvalues --   -4.84533  -4.84385  -4.84327  -4.84177  -1.09377
 Alpha  occ. eigenvalues --   -1.08757  -1.04840  -1.04183  -1.04077  -0.97604
 Alpha  occ. eigenvalues --   -0.97252  -0.78534  -0.68150  -0.65941  -0.59921
 Alpha  occ. eigenvalues --   -0.57517  -0.56091  -0.53618  -0.50841  -0.47463
 Alpha  occ. eigenvalues --   -0.47035  -0.43839  -0.43102  -0.42387  -0.41406
 Alpha  occ. eigenvalues --   -0.40345  -0.40292  -0.38966  -0.37936  -0.37433
 Alpha  occ. eigenvalues --   -0.37153  -0.35221  -0.35003  -0.32465  -0.30979
 Alpha  occ. eigenvalues --   -0.30799  -0.30495  -0.27330
 Alpha virt. eigenvalues --    0.02742   0.03790   0.05099   0.05583   0.08213
 Alpha virt. eigenvalues --    0.10648   0.11349   0.11955   0.12759   0.12999
 Alpha virt. eigenvalues --    0.14141   0.15030   0.15958   0.18305   0.19371

 Mulliken charges:
               1
     1  C   -0.110777
     2  C   -0.355442
     3  H    0.149904
     4  H    0.144943
     5  H    0.143869
     6  O   -0.540687
     7  H    0.347239
     8  P    1.102863
     9  P    1.102965
    10  O   -0.582633
    11  H    0.377594
    12  O   -0.575110
    13  H    0.372728
    14  O   -0.583042
    15  H    0.376174
    16  O   -0.576234
    17  H    0.371771
    18  O   -0.584103
    19  O   -0.582020
 Sum of Mulliken charges =  -0.00000

 Dipole moment (field-independent basis, Debye):
    X=              0.3104    Y=              1.8819    Z=             -3.5251  Tot=              4.0080
 Quadrupole moment (field-independent basis, Debye-Ang):
   XX=            -55.7901   YY=            -71.5656   ZZ=            -85.7033
   XY=              0.4498   XZ=              0.7008   YZ=             16.2515

 Normal termination of Gaussian 16 at Thu Jan 21 20:59:18 2021.
