 Gaussian 09, Revision A.02,
 Gaussian 09:  EM64L-G09RevA.02 11-Jun-2009

 ----------------------------------------------------------------------
 #P B3LYP/6-31G(d,p) # Opt=tight SCRF=(Solvent=Water) # Gfinput IOP(6/7
 =3) Pop=full Density Test # Units(Ang,Deg)
 ----------------------------------------------------------------------

 ---------
 peg-1.xyz
 ---------
 Symbolic Z-matrix:
 Charge =  0 Multiplicity = 1

 SCF Done:  E(RB3LYP) =  -230.252615645     A.U. after    9 cycles
 SCF Done:  E(RB3LYP) =  -230.260031480     A.U. after   10 cycles
 SCF Done:  E(RB3LYP) =  -230.260178523     A.U. after    8 cycles
 SCF Done:  E(RB3LYP) =  -230.260190614     A.U. after   10 cycles
 SCF Done:  E(RB3LYP) =  -230.260193329     A.U. after   10 cycles
 SCF Done:  E(RB3LYP) =  -230.260193404     A.U. after    5 cycles
 SCF Done:  E(RB3LYP) =  -230.260193553     A.U. after   10 cycles
 SCF Done:  E(RB3LYP) =  -230.260193411     A.U. after   10 cycles
 SCF Done:  E(RB3LYP) =  -230.260193411     A.U. after    4 cycles
 Optimization completed.
    -- Stationary point found.

                         Standard orientation:
 ---------------------------------------------------------------------
 Center     Atomic      Atomic             Coordinates (Angstroms)
 Number     Number       Type             X           Y           Z
 ---------------------------------------------------------------------
      1          8           0       -0.725852    1.650289    0.000000
      2          1           0       -1.646242    1.943136    0.000000
      3          6           0       -0.725852    0.226399    0.000000
      4          6           0        0.725852   -0.226399    0.000000
      5          1           0       -1.230967   -0.181616    0.887833
      6          1           0       -1.230967   -0.181616   -0.887833
      7          8           0        0.725852   -1.650289    0.000000
      8          1           0        1.230967    0.181616   -0.887833
      9          1           0        1.230967    0.181616    0.887833
     10          1           0        1.646242   -1.943136    0.000000
 ---------------------------------------------------------------------

 The electronic state is 1-AG.
 Alpha  occ. eigenvalues --  -19.14611 -19.14610 -10.22842 -10.22819  -1.02198
 Alpha  occ. eigenvalues --   -1.01113  -0.73546  -0.60300  -0.53196  -0.47804
 Alpha  occ. eigenvalues --   -0.47743  -0.41090  -0.39260  -0.35675  -0.32371
 Alpha  occ. eigenvalues --   -0.27112  -0.26972
 Alpha virt. eigenvalues --    0.06890   0.09666   0.14031   0.15363   0.16383
 Alpha virt. eigenvalues --    0.20074   0.21080   0.23173   0.25890   0.51939
 Alpha virt. eigenvalues --    0.56600   0.57643   0.58171   0.65244   0.69532

 Mulliken atomic charges:
              1
     1  O   -0.574603
     2  H    0.332709
     3  C    0.048961
     4  C    0.048961
     5  H    0.096467
     6  H    0.096467
     7  O   -0.574603
     8  H    0.096467
     9  H    0.096467
    10  H    0.332709
 Sum of Mulliken atomic charges =   0.00000

 Dipole moment (field-independent basis, Debye):
    X=              0.0000    Y=              0.0000    Z=              0.0000  Tot=              0.0000
 Quadrupole moment (field-independent basis, Debye-Ang):
   XX=            -16.2899   YY=            -27.3156   ZZ=            -25.0774
   XY=             -5.8112   XZ=              0.0000   YZ=              0.0000

 Normal termination of Gaussian 09 at Mon Mar 14 13:45:31 2022.
