 Gaussian 09, Revision A.02,
 Gaussian 09:  EM64L-G09RevA.02 11-Jun-2009

 ----------------------------------------------------------------------
 #p opt=tight b3lyp/6-31g(d,p) scrf=(solvent=water) geom=connectivity #
  density gfinput iop(6/7=3) pop=full test units=(ang,deg)
 ----------------------------------------------------------------------

 ---------
 peg-6.xyz
 ---------
 Symbolic Z-matrix:
 Charge =  0 Multiplicity = 1

 SCF Done:  E(RB3LYP) =  -466.139798270     A.U. after   10 cycles
 SCF Done:  E(RB3LYP) =  -466.159314951     A.U. after    9 cycles
 SCF Done:  E(RB3LYP) =  -466.161412891     A.U. after    8 cycles
 SCF Done:  E(RB3LYP) =  -466.161502734     A.U. after   12 cycles
 SCF Done:  E(RB3LYP) =  -466.161513157     A.U. after   12 cycles
 SCF Done:  E(RB3LYP) =  -466.161513636     A.U. after    6 cycles
 SCF Done:  E(RB3LYP) =  -466.161513677     A.U. after    5 cycles
 SCF Done:  E(RB3LYP) =  -466.161513683     A.U. after   12 cycles
 Optimization completed.
    -- Stationary point found.

                         Standard orientation:
 ---------------------------------------------------------------------
 Center     Atomic      Atomic             Coordinates (Angstroms)
 Number     Number       Type             X           Y           Z
 ---------------------------------------------------------------------
      1          8           0       -5.601765   -0.378080    0.000000
      2          1           0       -6.391518    0.178882    0.000000
      3          6           0       -4.464272    0.486697    0.000000
      4          6           0       -3.207861   -0.374061    0.000000
      5          1           0       -4.468513    1.140844   -0.886073
      6          1           0       -4.468513    1.140843    0.886074
      7          6           0       -1.916183    0.451652    0.000000
      8          1           0       -3.232587   -1.029520    0.880418
      9          1           0       -3.232587   -1.029520   -0.880419
     10          6           0       -0.647593   -0.410379    0.000000
     11          1           0       -1.904798    1.112122   -0.878401
     12          1           0       -1.904799    1.112122    0.878402
     13          6           0        0.647581    0.410369    0.000000
     14          1           0       -0.658774   -1.071211    0.878257
     15          1           0       -0.658774   -1.071210   -0.878257
     16          6           0        1.916176   -0.451654    0.000000
     17          1           0        0.658760    1.071201   -0.878256
     18          1           0        0.658760    1.071201    0.878257
     19          6           0        3.207854    0.374066    0.000000
     20          1           0        1.904797   -1.112122    0.878402
     21          1           0        1.904797   -1.112122   -0.878402
     22          1           0        3.232583    1.029520   -0.880420
     23          1           0        3.232583    1.029521    0.880420
     24          6           0        4.464277   -0.486688    0.000000
     25          1           0        4.468510   -1.140836   -0.886073
     26          1           0        4.468510   -1.140834    0.886074
     27          8           0        5.601783    0.378077   -0.000001
     28          1           0        6.391545   -0.178877    0.000002
 ---------------------------------------------------------------------

 The electronic state is 1-A.
 Alpha  occ. eigenvalues --  -19.13999 -19.13999 -10.22465 -10.22464 -10.17762
 Alpha  occ. eigenvalues --  -10.17762 -10.17612 -10.17612 -10.17544 -10.17523
 Alpha  occ. eigenvalues --   -1.00947  -1.00947  -0.80640  -0.78177  -0.74022
 Alpha  occ. eigenvalues --   -0.68757  -0.63096  -0.58701  -0.57401  -0.57308
 Alpha  occ. eigenvalues --   -0.50239  -0.49783  -0.48411  -0.47232  -0.44639
 Alpha  occ. eigenvalues --   -0.42140  -0.41448  -0.41143  -0.38054  -0.37738
 Alpha  occ. eigenvalues --   -0.37285  -0.34645  -0.34028  -0.33610  -0.32276
 Alpha  occ. eigenvalues --   -0.32224  -0.32177  -0.31736  -0.30153  -0.26499
 Alpha  occ. eigenvalues --   -0.26492
 Alpha virt. eigenvalues --    0.08649   0.08804   0.09126   0.10216   0.11586
 Alpha virt. eigenvalues --    0.12786   0.12804   0.14053   0.15558   0.16525
 Alpha virt. eigenvalues --    0.17693   0.19089   0.19384   0.19871   0.20080

 Mulliken atomic charges:
              1
     1  O   -0.580562
     2  H    0.325638
     3  C    0.057007
     4  C   -0.187234
     5  H    0.087357
     6  H    0.087357
     7  C   -0.182694
     8  H    0.098297
     9  H    0.098297
    10  C   -0.176516
    11  H    0.094590
    12  H    0.094590
    13  C   -0.176516
    14  H    0.091938
    15  H    0.091938
    16  C   -0.182695
    17  H    0.091938
    18  H    0.091938
    19  C   -0.187236
    20  H    0.094590
    21  H    0.094590
    22  H    0.098298
    23  H    0.098298
    24  C    0.057009
    25  H    0.087356
    26  H    0.087356
    27  O   -0.580566
    28  H    0.325639
 Sum of Mulliken atomic charges =   0.00000

 Dipole moment (field-independent basis, Debye):
    X=              0.0000    Y=              0.0000    Z=              0.0000  Tot=              0.0000
 Quadrupole moment (field-independent basis, Debye-Ang):
   XX=            -57.2444   YY=            -65.7398   ZZ=            -64.0359
   XY=            -21.0018   XZ=              0.0000   YZ=              0.0000

 Normal termination of Gaussian 09 at Mon Mar 14 13:59:08 2022.
