 Gaussian 09, Revision A.02,
 Gaussian 09:  EM64L-G09RevA.02 11-Jun-2009

 ----------------------------------------------------------------------
 #P B3LYP/6-31G(d,p) # Opt=tight SCRF=(Solvent=Water) # Gfinput IOP(6/7
 =3) Pop=full Density Test # Units(Ang,Deg)
 ----------------------------------------------------------------------

 ---------
 peg-5.xyz
 ---------
 Symbolic Z-matrix:
 Charge =  0 Multiplicity = 1

 SCF Done:  E(RB3LYP) =  -387.510152790     A.U. after   10 cycles
 SCF Done:  E(RB3LYP) =  -387.527124755     A.U. after    9 cycles
 SCF Done:  E(RB3LYP) =  -387.528306141     A.U. after   11 cycles
 SCF Done:  E(RB3LYP) =  -387.528347309     A.U. after    9 cycles
 SCF Done:  E(RB3LYP) =  -387.528357087     A.U. after    7 cycles
 SCF Done:  E(RB3LYP) =  -387.528357492     A.U. after    6 cycles
 SCF Done:  E(RB3LYP) =  -387.528407254     A.U. after   12 cycles
 SCF Done:  E(RB3LYP) =  -387.528357478     A.U. after   11 cycles
 SCF Done:  E(RB3LYP) =  -387.528407336     A.U. after   11 cycles
 SCF Done:  E(RB3LYP) =  -387.528357520     A.U. after   11 cycles
 SCF Done:  E(RB3LYP) =  -387.528357522     A.U. after    3 cycles
 Optimization completed.
    -- Stationary point found.

                         Standard orientation:
 ---------------------------------------------------------------------
 Center     Atomic      Atomic             Coordinates (Angstroms)
 Number     Number       Type             X           Y           Z
 ---------------------------------------------------------------------
      1          8           0       -0.149086    4.334456    0.000000
      2          1           0       -0.801366    5.047520    0.000000
      3          6           0       -0.863409    3.097104    0.000000
      4          6           0        0.149086    1.959542    0.000000
      5          1           0       -1.513030    3.019061    0.886030
      6          1           0       -1.513030    3.019061   -0.886030
      7          6           0       -0.507749    0.574630    0.000000
      8          1           0        0.796008    2.067066   -0.880454
      9          1           0        0.796008    2.067066    0.880454
     10          6           0        0.507749   -0.574630    0.000000
     11          1           0       -1.161086    0.479683    0.878491
     12          1           0       -1.161086    0.479683   -0.878491
     13          6           0       -0.149086   -1.959542    0.000000
     14          1           0        1.161086   -0.479683   -0.878491
     15          1           0        1.161086   -0.479683    0.878491
     16          6           0        0.863409   -3.097104    0.000000
     17          1           0       -0.796008   -2.067066    0.880454
     18          1           0       -0.796008   -2.067066   -0.880454
     19          8           0        0.149086   -4.334456    0.000000
     20          1           0        1.513030   -3.019061   -0.886030
     21          1           0        1.513030   -3.019061    0.886030
     22          1           0        0.801366   -5.047520    0.000000
 ---------------------------------------------------------------------

 The electronic state is 1-AG.
 Alpha  occ. eigenvalues --  -19.14017 -19.14017 -10.22494 -10.22494 -10.17925
 Alpha  occ. eigenvalues --  -10.17905 -10.17670 -10.17670  -1.00973  -1.00971
 Alpha  occ. eigenvalues --   -0.80255  -0.75996  -0.69552  -0.62469  -0.57951
 Alpha  occ. eigenvalues --   -0.57705  -0.50204  -0.49931  -0.48421  -0.46421
 Alpha  occ. eigenvalues --   -0.42466  -0.41814  -0.40475  -0.37584  -0.37501
 Alpha  occ. eigenvalues --   -0.34906  -0.33582  -0.32924  -0.32626  -0.32064
 Alpha  occ. eigenvalues --   -0.31007  -0.26540  -0.26485
 Alpha virt. eigenvalues --    0.08650   0.08780   0.09240   0.11353   0.11980
 Alpha virt. eigenvalues --    0.13384   0.15726   0.16063   0.17952   0.18776
 Alpha virt. eigenvalues --    0.19991   0.20216   0.20250   0.20577   0.20860

 Mulliken atomic charges:
              1
     1  O   -0.580433
     2  H    0.325808
     3  C    0.056981
     4  C   -0.188050
     5  H    0.087734
     6  H    0.087734
     7  C   -0.181177
     8  H    0.099153
     9  H    0.099153
    10  C   -0.181177
    11  H    0.096549
    12  H    0.096549
    13  C   -0.188050
    14  H    0.096549
    15  H    0.096549
    16  C    0.056981
    17  H    0.099153
    18  H    0.099153
    19  O   -0.580433
    20  H    0.087734
    21  H    0.087734
    22  H    0.325808
 Sum of Mulliken atomic charges =   0.00000

 Dipole moment (field-independent basis, Debye):
    X=              0.0000    Y=              0.0000    Z=              0.0000  Tot=              0.0000
 Quadrupole moment (field-independent basis, Debye-Ang):
   XX=            -48.2469   YY=            -48.0627   ZZ=            -51.0105
   XY=            -16.8590   XZ=              0.0000   YZ=              0.0000

 Normal termination of Gaussian 09 at Mon Mar 14 13:51:46 2022.
