 Gaussian 09, Revision A.02,
 Gaussian 09:  EM64L-G09RevA.02 11-Jun-2009

 ----------------------------------------------------------------------
 #P B3LYP/6-31G(d,p) # Opt=tight SCRF=(Solvent=Water) # Gfinput IOP(6/7
 =3) Pop=full Density Test # Units(Ang,Deg)
 ----------------------------------------------------------------------

 ---------
 peg-3.xyz
 ---------
 Symbolic Z-matrix:
 Charge =  0 Multiplicity = 1

 SCF Done:  E(RB3LYP) =  -308.883101201     A.U. after   10 cycles
 SCF Done:  E(RB3LYP) =  -308.894703202     A.U. after    9 cycles
 SCF Done:  E(RB3LYP) =  -308.895144421     A.U. after   11 cycles
 SCF Done:  E(RB3LYP) =  -308.895199441     A.U. after   11 cycles
 SCF Done:  E(RB3LYP) =  -308.895203004     A.U. after   11 cycles
 SCF Done:  E(RB3LYP) =  -308.895203179     A.U. after    6 cycles
 SCF Done:  E(RB3LYP) =  -308.895203204     A.U. after    5 cycles
 Optimization completed.
    -- Stationary point found.

                         Standard orientation:
 ---------------------------------------------------------------------
 Center     Atomic      Atomic             Coordinates (Angstroms)
 Number     Number       Type             X           Y           Z
 ---------------------------------------------------------------------
      1          8           0       -1.506746    2.667164    0.000000
      2          1           0       -2.427993    2.959048    0.000000
      3          6           0       -1.506746    1.239160    0.000000
      4          6           0       -0.059615    0.763765    0.000000
      5          1           0       -2.028501    0.845459    0.886224
      6          1           0       -2.028501    0.845459   -0.886224
      7          6           0        0.059615   -0.763765    0.000000
      8          1           0        0.445066    1.181320   -0.880704
      9          1           0        0.445066    1.181320    0.880704
     10          6           0        1.506746   -1.239160    0.000000
     11          1           0       -0.445066   -1.181320    0.880704
     12          1           0       -0.445066   -1.181320   -0.880704
     13          8           0        1.506746   -2.667164    0.000000
     14          1           0        2.028501   -0.845459   -0.886224
     15          1           0        2.028501   -0.845459    0.886224
     16          1           0        2.427993   -2.959048    0.000000
 ---------------------------------------------------------------------

 The electronic state is 1-AG.
 Alpha  occ. eigenvalues --  -19.14106 -19.14106 -10.22661 -10.22660 -10.18064
 Alpha  occ. eigenvalues --  -10.18042  -1.01106  -1.01068  -0.79037  -0.70909
 Alpha  occ. eigenvalues --   -0.61509  -0.58115  -0.51070  -0.49142  -0.48378
 Alpha  occ. eigenvalues --   -0.44594  -0.42230  -0.38114  -0.37501  -0.35487
 Alpha  occ. eigenvalues --   -0.33327  -0.33140  -0.31773  -0.26799  -0.26433
 Alpha virt. eigenvalues --    0.08355   0.09042   0.09782   0.12872   0.13878
 Alpha virt. eigenvalues --    0.15925   0.18346   0.18573   0.20357   0.20511
 Alpha virt. eigenvalues --    0.20631   0.20861   0.24366   0.27850   0.30944

 Mulliken atomic charges:
              1
     1  O   -0.579579
     2  H    0.326613
     3  C    0.058794
     4  C   -0.192520
     5  H    0.089643
     6  H    0.089643
     7  C   -0.192520
     8  H    0.103703
     9  H    0.103703
    10  C    0.058794
    11  H    0.103703
    12  H    0.103703
    13  O   -0.579579
    14  H    0.089643
    15  H    0.089643
    16  H    0.326613
 Sum of Mulliken atomic charges =   0.00000

 Dipole moment (field-independent basis, Debye):
    X=              0.0000    Y=              0.0000    Z=              0.0000  Tot=              0.0000
 Quadrupole moment (field-independent basis, Debye-Ang):
   XX=            325.5296   YY=           -395.2605   ZZ=            -37.9982
   XY=           -553.7892   XZ=              0.0000   YZ=              0.0000

 Normal termination of Gaussian 09 at Mon Mar 14 13:47:19 2022.
