 Gaussian 09, Revision A.02,
 Gaussian 09:  EM64L-G09RevA.02 11-Jun-2009

 ----------------------------------------------------------------------
 #P B3LYP/6-31G(d,p) # Opt=tight SCRF=(Solvent=Water) # Gfinput IOP(6/7
 =3) Pop=full Density Test # Units(Ang,Deg)
 ----------------------------------------------------------------------

 ---------
 peg-4.xyz
 ---------
 Symbolic Z-matrix:
 Charge =  0 Multiplicity = 1

 SCF Done:  E(RB3LYP) =  -348.196704706     A.U. after   10 cycles
 SCF Done:  E(RB3LYP) =  -348.211033187     A.U. after   11 cycles
 SCF Done:  E(RB3LYP) =  -348.211700146     A.U. after    8 cycles
 SCF Done:  E(RB3LYP) =  -348.211770596     A.U. after    8 cycles
 SCF Done:  E(RB3LYP) =  -348.211777295     A.U. after    7 cycles
 SCF Done:  E(RB3LYP) =  -348.211777559     A.U. after    6 cycles
 SCF Done:  E(RB3LYP) =  -348.211777594     A.U. after   12 cycles
 SCF Done:  E(RB3LYP) =  -348.211777596     A.U. after   12 cycles
 Optimization completed.
    -- Stationary point found.

                         Standard orientation:
 ---------------------------------------------------------------------
 Center     Atomic      Atomic             Coordinates (Angstroms)
 Number     Number       Type             X           Y           Z
 ---------------------------------------------------------------------
      1          8           0       -0.419375   -3.669713    0.000000
      2          1           0        0.124306   -4.468669    0.000000
      3          6           0        0.463946   -2.547016    0.000000
      4          6           0       -0.377334   -1.277419    0.000000
      5          1           0        1.117808   -2.561459    0.886127
      6          1           0        1.117808   -2.561459   -0.886127
      7          6           0        0.470240    0.000000    0.000000
      8          1           0       -1.032612   -1.291082   -0.880522
      9          1           0       -1.032612   -1.291082    0.880522
     10          6           0       -0.377334    1.277419    0.000000
     11          1           0        1.129909    0.000000    0.878691
     12          1           0        1.129909    0.000000   -0.878691
     13          6           0        0.463946    2.547016    0.000000
     14          1           0       -1.032612    1.291082   -0.880522
     15          1           0       -1.032612    1.291082    0.880522
     16          8           0       -0.419375    3.669713    0.000000
     17          1           0        1.117808    2.561459    0.886127
     18          1           0        1.117808    2.561459   -0.886127
     19          1           0        0.124306    4.468669    0.000000
 ---------------------------------------------------------------------

 The electronic state is 1-A'.
 Alpha  occ. eigenvalues --  -19.14048 -19.14048 -10.22537 -10.22537 -10.18183
 Alpha  occ. eigenvalues --  -10.17790 -10.17789  -1.01010  -1.01004  -0.79837
 Alpha  occ. eigenvalues --   -0.74013  -0.65989  -0.59061  -0.57872  -0.50863
 Alpha  occ. eigenvalues --   -0.49311  -0.48416  -0.45710  -0.41890  -0.40679
 Alpha  occ. eigenvalues --   -0.39843  -0.35211  -0.35150  -0.34992  -0.32510
 Alpha  occ. eigenvalues --   -0.32424  -0.31421  -0.26563  -0.26529
 Alpha virt. eigenvalues --    0.08342   0.09023   0.09325   0.12324   0.13095
 Alpha virt. eigenvalues --    0.13721   0.17004   0.18048   0.18668   0.19801
 Alpha virt. eigenvalues --    0.20232   0.20717   0.20783   0.20963   0.23588

 Mulliken atomic charges:
              1
     1  O   -0.580180
     2  H    0.326065
     3  C    0.056914
     4  C   -0.186068
     5  H    0.088206
     6  H    0.088206
     7  C   -0.188130
     8  H    0.100603
     9  H    0.100603
    10  C   -0.186068
    11  H    0.099716
    12  H    0.099716
    13  C    0.056914
    14  H    0.100603
    15  H    0.100603
    16  O   -0.580180
    17  H    0.088206
    18  H    0.088206
    19  H    0.326065
 Sum of Mulliken atomic charges =   0.00000

 Dipole moment (field-independent basis, Debye):
    X=              3.6687    Y=              0.0000    Z=              0.0000  Tot=              3.6687
 Quadrupole moment (field-independent basis, Debye-Ang):
   XX=            -45.9205   YY=            -36.7089   ZZ=            -44.5000
   XY=              0.0000   XZ=              0.0000   YZ=              0.0000

 Normal termination of Gaussian 09 at Mon Mar 14 13:48:56 2022.
