 Gaussian 09, Revision A.02,
 Gaussian 09:  EM64L-G09RevA.02 11-Jun-2009

 ----------------------------------------------------------------------
 #P B3LYP/6-31G(d,p) # Opt=tight SCRF=(Solvent=Water) # Gfinput IOP(6/7
 =3) Pop=full Density Test # Units(Ang,Deg)
 ----------------------------------------------------------------------

 ---------
 peg-2.xyz
 ---------
 Symbolic Z-matrix:
 Charge =  0 Multiplicity = 1

 SCF Done:  E(RB3LYP) =  -269.568368726     A.U. after   10 cycles
 SCF Done:  E(RB3LYP) =  -269.577448877     A.U. after   12 cycles
 SCF Done:  E(RB3LYP) =  -269.577740125     A.U. after    8 cycles
 SCF Done:  E(RB3LYP) =  -269.577780534     A.U. after    7 cycles
 SCF Done:  E(RB3LYP) =  -269.577785095     A.U. after    7 cycles
 SCF Done:  E(RB3LYP) =  -269.577785275     A.U. after    6 cycles
 SCF Done:  E(RB3LYP) =  -269.577785296     A.U. after    5 cycles
 SCF Done:  E(RB3LYP) =  -269.577785297     A.U. after   12 cycles
 Optimization completed.
    -- Stationary point found.

                         Standard orientation:
 ---------------------------------------------------------------------
 Center     Atomic      Atomic             Coordinates (Angstroms)
 Number     Number       Type             X           Y           Z
 ---------------------------------------------------------------------
      1          8           0       -0.404257   -2.385930    0.000000
      2          1           0        0.135868   -3.187318    0.000000
      3          6           0        0.484488   -1.268698    0.000000
      4          6           0       -0.358464    0.000000    0.000000
      5          1           0        1.137771   -1.286033    0.886106
      6          1           0        1.137771   -1.286033   -0.886106
      7          6           0        0.484488    1.268698    0.000000
      8          1           0       -1.008889    0.000000   -0.882689
      9          1           0       -1.008889    0.000000    0.882689
     10          8           0       -0.404257    2.385930    0.000000
     11          1           0        1.137771    1.286033    0.886106
     12          1           0        1.137771    1.286033   -0.886106
     13          1           0        0.135868    3.187319    0.000000
 ---------------------------------------------------------------------

 The electronic state is 1-A'.
 Alpha  occ. eigenvalues --  -19.14248 -19.14248 -10.22930 -10.22930 -10.17947
 Alpha  occ. eigenvalues --   -1.01347  -1.01139  -0.77355  -0.66085  -0.58617
 Alpha  occ. eigenvalues --   -0.50694  -0.50223  -0.48245  -0.42705  -0.39782
 Alpha  occ. eigenvalues --   -0.38621  -0.34877  -0.33124  -0.32714  -0.27146
 Alpha  occ. eigenvalues --   -0.26368
 Alpha virt. eigenvalues --    0.08448   0.08749   0.10324   0.13822   0.15745
 Alpha virt. eigenvalues --    0.18402   0.18407   0.19780   0.20797   0.22750
 Alpha virt. eigenvalues --    0.26415   0.28301   0.51000   0.55554   0.55596

 Mulliken atomic charges:
              1
     1  O   -0.576813
     2  H    0.327413
     3  C    0.054784
     4  C   -0.197463
     5  H    0.092651
     6  H    0.092651
     7  C    0.054784
     8  H    0.108047
     9  H    0.108047
    10  O   -0.576813
    11  H    0.092650
    12  H    0.092650
    13  H    0.327413
 Sum of Mulliken atomic charges =   0.00000

 Dipole moment (field-independent basis, Debye):
    X=              3.6819    Y=              0.0000    Z=              0.0000  Tot=              3.6819
 Quadrupole moment (field-independent basis, Debye-Ang):
   XX=            -32.4218   YY=            -23.7137   ZZ=            -31.5129
   XY=              0.0000   XZ=              0.0000   YZ=              0.0000

 Normal termination of Gaussian 09 at Mon Mar 14 13:46:19 2022.
