 Gaussian 09, Revision A.02,
 Gaussian 09:  EM64L-G09RevA.02 11-Jun-2009

 ----------------------------------------------------------------------
 #P B3LYP/6-31G(d,p) # Opt=tight SCRF=(Solvent=Water) # Gfinput IOP(6/7
 =3) Pop=full Density Test # Units(Ang,Deg)
 ----------------------------------------------------------------------

 ---------
 peg-6.xyz
 ---------
 Symbolic Z-matrix:
 Charge =  0 Multiplicity = 1

 SCF Done:  E(RB3LYP) =  -426.823649073     A.U. after   10 cycles
 SCF Done:  E(RB3LYP) =  -426.843065419     A.U. after   11 cycles
 SCF Done:  E(RB3LYP) =  -426.844859203     A.U. after    8 cycles
 SCF Done:  E(RB3LYP) =  -426.844949708     A.U. after    7 cycles
 SCF Done:  E(RB3LYP) =  -426.844960806     A.U. after    7 cycles
 SCF Done:  E(RB3LYP) =  -426.844961372     A.U. after   11 cycles
 SCF Done:  E(RB3LYP) =  -426.844961420     A.U. after   11 cycles
 SCF Done:  E(RB3LYP) =  -426.844961399     A.U. after   13 cycles
 Optimization completed.
    -- Stationary point found.

                         Standard orientation:
 ---------------------------------------------------------------------
 Center     Atomic      Atomic             Coordinates (Angstroms)
 Number     Number       Type             X           Y           Z
 ---------------------------------------------------------------------
      1          8           0        0.000000    4.953044    0.430777
      2          1           0        0.000000    5.751948   -0.112999
      3          6           0        0.000000    3.830106   -0.452747
      4          6           0        0.000000    2.559636    0.387123
      5          1           0       -0.886086    3.845150   -1.106703
      6          1           0        0.886086    3.845150   -1.106703
      7          6           0        0.000000    1.281836   -0.459924
      8          1           0        0.880423    2.573522    1.042863
      9          1           0       -0.880423    2.573522    1.042863
     10          6           0        0.000000    0.000000    0.381975
     11          1           0       -0.878465    1.281080   -1.120359
     12          1           0        0.878465    1.281080   -1.120359
     13          6           0        0.000000   -1.281836   -0.459924
     14          1           0        0.878297    0.000000    1.042543
     15          1           0       -0.878297    0.000000    1.042543
     16          6           0        0.000000   -2.559636    0.387123
     17          1           0       -0.878465   -1.281080   -1.120359
     18          1           0        0.878465   -1.281080   -1.120359
     19          6           0        0.000000   -3.830106   -0.452747
     20          1           0        0.880423   -2.573522    1.042863
     21          1           0       -0.880423   -2.573522    1.042863
     22          8           0        0.000000   -4.953044    0.430777
     23          1           0       -0.886086   -3.845150   -1.106703
     24          1           0        0.886086   -3.845150   -1.106703
     25          1           0        0.000000   -5.751948   -0.112999
 ---------------------------------------------------------------------

 The electronic state is 1-A1.
 Alpha  occ. eigenvalues --  -19.14005 -19.14005 -10.22474 -10.22474 -10.17802
 Alpha  occ. eigenvalues --  -10.17801 -10.17650 -10.17633 -10.17633  -1.00954
 Alpha  occ. eigenvalues --   -1.00954  -0.80494  -0.77295  -0.72145  -0.65932
 Alpha  occ. eigenvalues --   -0.60108  -0.57568  -0.57500  -0.50255  -0.49779
 Alpha  occ. eigenvalues --   -0.48419  -0.46900  -0.43730  -0.42507  -0.39863
 Alpha  occ. eigenvalues --   -0.39581  -0.38918  -0.36113  -0.35434  -0.33455
 Alpha  occ. eigenvalues --   -0.33211  -0.32707  -0.32159  -0.31868  -0.30551
 Alpha  occ. eigenvalues --   -0.26519  -0.26484
 Alpha virt. eigenvalues --    0.08598   0.08859   0.09157   0.10684   0.11746
 Alpha virt. eigenvalues --    0.12965   0.14239   0.14775   0.16190   0.18327
 Alpha virt. eigenvalues --    0.18783   0.19634   0.20121   0.20274   0.20305

 Mulliken atomic charges:
              1
     1  O   -0.580510
     2  H    0.325702
     3  C    0.057091
     4  C   -0.187492
     5  H    0.087437
     6  H    0.087437
     7  C   -0.183276
     8  H    0.098622
     9  H    0.098622
    10  C   -0.174521
    11  H    0.095108
    12  H    0.095108
    13  C   -0.183276
    14  H    0.093410
    15  H    0.093410
    16  C   -0.187492
    17  H    0.095108
    18  H    0.095108
    19  C    0.057091
    20  H    0.098622
    21  H    0.098622
    22  O   -0.580510
    23  H    0.087437
    24  H    0.087437
    25  H    0.325702
 Sum of Mulliken atomic charges =   0.00000

 Dipole moment (field-independent basis, Debye):
    X=              0.0000    Y=              0.0000    Z=             -3.6680  Tot=              3.6680
 Quadrupole moment (field-independent basis, Debye-Ang):
   XX=            -57.5213   YY=            -49.9147   ZZ=            -59.4251
   XY=              0.0000   XZ=              0.0000   YZ=              0.0000

 Normal termination of Gaussian 09 at Mon Mar 14 13:54:45 2022.
