 Gaussian 16, Revision A.03,
 Gaussian 16:  ES64L-G16RevA.03 25-Dec-2016

 ----------------------------------------------------------------------
 #t B3LYP/LANL2DZ # SCRF=(Solvent=Water) # Gfinput IOP(6/7=3) Pop=hirsh
 feld Density Test # Units(Ang,Deg)
 ----------------------------------------------------------------------
 ----------
 3-tio2.pdb
 ----------
 Symbolic Z-matrix:
 Charge =  1 Multiplicity = 2

                         Standard orientation:
 ---------------------------------------------------------------------
 Center     Atomic      Atomic             Coordinates (Angstroms)
 Number     Number       Type             X           Y           Z
 ---------------------------------------------------------------------
      1         22           0        0.324438   -0.000061    0.053829
      2         22           0        3.068398   -0.000022   -0.378021
      3          8           0        1.657178   -1.232232   -0.154531
      4          8           0        1.657229    1.232168   -0.154271
      5          8           0       -1.109502   -0.000651    1.277439
      6          8           0       -1.036702    0.000279   -1.184431
      7          8           0        3.938728   -0.000232    1.026179
      8         22           0       -2.452522   -0.000061    0.028779
      9          8           0       -3.358912   -1.532770    0.002499
     10          1           0       -3.909082   -2.328490   -0.014451
     11          8           0       -3.357491    1.533290    0.002949
     12          1           0       -3.902061    2.332840   -0.013161
 ---------------------------------------------------------------------

 SCF Done:  E(UB3LYP) =  -702.435339498     A.U. after   32 cycles

 The electronic state is 2-A.
 Alpha  occ. eigenvalues --  -19.21938 -19.19855 -19.19854 -19.18585 -19.18205
 Alpha  occ. eigenvalues --  -19.16259 -19.16256  -2.50667  -2.49711  -2.48879
 Alpha  occ. eigenvalues --   -1.63990  -1.63169  -1.62223  -1.62172  -1.61488
 Alpha  occ. eigenvalues --   -1.61346  -1.61102  -1.60925  -1.60445  -0.99051
 Alpha  occ. eigenvalues --   -0.98395  -0.98324  -0.97016  -0.96783  -0.95853
 Alpha  occ. eigenvalues --   -0.95374  -0.53539  -0.52553  -0.45721  -0.44890
 Alpha  occ. eigenvalues --   -0.44197  -0.42972  -0.42647  -0.41762  -0.41165
 Alpha  occ. eigenvalues --   -0.40727  -0.40242  -0.40181  -0.39735  -0.38925
 Alpha  occ. eigenvalues --   -0.37212  -0.37108  -0.36647  -0.36332  -0.34328
 Alpha  occ. eigenvalues --   -0.33777  -0.33318
 Alpha virt. eigenvalues --   -0.13852  -0.12710  -0.11185  -0.10423  -0.10106
 Alpha virt. eigenvalues --   -0.09935  -0.07651  -0.07260  -0.06375  -0.05314
 Alpha virt. eigenvalues --   -0.05154  -0.04574  -0.04013  -0.03771  -0.03263

  Beta  occ. eigenvalues --  -19.20587 -19.19303 -19.19302 -19.18164 -19.17723
  Beta  occ. eigenvalues --  -19.16193 -19.16190  -2.51306  -2.50117  -2.49035
  Beta  occ. eigenvalues --   -1.64633  -1.63786  -1.62744  -1.62691  -1.61871
  Beta  occ. eigenvalues --   -1.61793  -1.61216  -1.61171  -1.60646  -0.98809
  Beta  occ. eigenvalues --   -0.98154  -0.96952  -0.95480  -0.94775  -0.94100
  Beta  occ. eigenvalues --   -0.92949  -0.53491  -0.52506  -0.44285  -0.43761
  Beta  occ. eigenvalues --   -0.42965  -0.42096  -0.40908  -0.40080  -0.39877
  Beta  occ. eigenvalues --   -0.39725  -0.39420  -0.38684  -0.38412  -0.36258
  Beta  occ. eigenvalues --   -0.35994  -0.35894  -0.34931  -0.33171  -0.33085
  Beta  occ. eigenvalues --   -0.32339
  Beta virt. eigenvalues --   -0.28546  -0.14106  -0.13107  -0.11233  -0.10555
  Beta virt. eigenvalues --   -0.10113  -0.09530  -0.07601  -0.07322  -0.06398
  Beta virt. eigenvalues --   -0.05360  -0.05116  -0.04466  -0.03935  -0.03784

 Mulliken charges and spin densities:
               1          2
     1  Ti   1.555434  -0.120476
     2  Ti   1.566693  -0.199807
     3  O   -0.639447   0.219727
     4  O   -0.639473   0.219690
     5  O   -0.652211   0.187131
     6  O   -0.669479   0.158108
     7  O   -0.329747   0.536093
     8  Ti   1.408616  -0.051221
     9  O   -0.737633   0.026276
    10  H    0.437374  -0.000831
    11  O   -0.737524   0.026139
    12  H    0.437395  -0.000827
 Sum of Mulliken charges =   1.00000   1.00000

 Dipole moment (field-independent basis, Debye):
    X=              6.1063    Y=              0.0113    Z=             -5.2940  Tot=              8.0817
 StAtR1:  DoIntr=F IAtCor=3 NETot=      94 Failed=F Sum=  3.00D+01 SumC=  0.00D+00
 There are a total of      307336 grid points.
 ElSum from          density=       93.0000056998
 ElSum from atomic densities=      124.0000424543

 Hirshfeld populations at iteration   1 (CX, CA, CB, DipXYZ):
               1          2          3          4          5          6
     1  Ti   0.000000   5.551306   5.627212   0.075352   0.000082   0.181538
     2  Ti   0.000039   5.354061   5.464589   0.813254   0.000112  -1.097410
     3  O    0.000014   4.252146   4.061516  -0.002604   0.072676  -0.005742

 Normal termination of Gaussian 16 at Mon Jun  7 17:26:17 2021.
