 Gaussian 16, Revision A.03,
 Gaussian 16:  ES64L-G16RevA.03 25-Dec-2016

 ----------------------------------------------------------------------
 #P B3LYP/LANL2DZ # SCRF=(Solvent=Water) # Pop=(Chelp, ReadRadii) # Gfi
 nput IOP(6/7=3) Density Test # Units(Ang,Deg)
 ----------------------------------------------------------------------

 -------------------
 Title Card Required
 -------------------
 Symbolic Z-matrix:
 Charge =  0 Multiplicity = 1

                         Standard orientation:
 ---------------------------------------------------------------------
 Center     Atomic      Atomic             Coordinates (Angstroms)
 Number     Number       Type             X           Y           Z
 ---------------------------------------------------------------------
      1         22           0        0.324438   -0.000061    0.053829
      2         22           0        3.068398   -0.000022   -0.378021
      3          8           0        1.657178   -1.232232   -0.154531
      4          8           0        1.657229    1.232168   -0.154271
      5          8           0       -1.109502   -0.000651    1.277439
      6          8           0       -1.036702    0.000279   -1.184431
      7          8           0        3.938728   -0.000232    1.026179
      8         22           0       -2.452522   -0.000061    0.028779
      9          8           0       -3.358912   -1.532770    0.002499
     10          1           0       -3.909082   -2.328490   -0.014451
     11          8           0       -3.357491    1.533290    0.002949
     12          1           0       -3.902061    2.332840   -0.013161
 ---------------------------------------------------------------------

 SCF Done:  E(RB3LYP) =  -702.726734794     A.U. after   20 cycles

 The electronic state is 1-A.
 Alpha  occ. eigenvalues --  -19.14345 -19.14341 -19.14099 -19.13735 -19.13735
 Alpha  occ. eigenvalues --  -19.13605 -19.12369  -2.46312  -2.45659  -2.44802
 Alpha  occ. eigenvalues --   -1.59595  -1.58662  -1.58180  -1.57967  -1.57536
 Alpha  occ. eigenvalues --   -1.57452  -1.57298  -1.56660  -1.56503  -0.97250
 Alpha  occ. eigenvalues --   -0.96625  -0.92895  -0.91291  -0.90894  -0.90644
 Alpha  occ. eigenvalues --   -0.87102  -0.51836  -0.50795  -0.40698  -0.39501
 Alpha  occ. eigenvalues --   -0.39214  -0.38048  -0.37204  -0.36775  -0.36666
 Alpha  occ. eigenvalues --   -0.36274  -0.36173  -0.34929  -0.34346  -0.34075
 Alpha  occ. eigenvalues --   -0.32908  -0.32797  -0.31656  -0.31467  -0.30768
 Alpha  occ. eigenvalues --   -0.29763  -0.29055
 Alpha virt. eigenvalues --   -0.09697  -0.08800  -0.07378  -0.06553  -0.05964
 Alpha virt. eigenvalues --   -0.05183  -0.04100  -0.04041  -0.03048  -0.02040
 Alpha virt. eigenvalues --   -0.01668  -0.01031  -0.00543  -0.00207   0.00191

 Mulliken charges:
               1
     1  Ti   1.433211
     2  Ti   1.374296
     3  O   -0.736398
     4  O   -0.736417
     5  O   -0.727345
     6  O   -0.733716
     7  O   -0.523740
     8  Ti   1.333546
     9  O   -0.766954
    10  H    0.425143
    11  O   -0.766797
    12  H    0.425171
 Sum of Mulliken charges =  -0.00000

 Dipole moment (field-independent basis, Debye):
    X=              0.3789    Y=              0.0123    Z=             -6.3374  Tot=              6.3487
 Quadrupole moment (field-independent basis, Debye-Ang):
   XX=            -59.1458   YY=            -83.8219   ZZ=            -92.0559
   XY=             -0.0066   XZ=            -25.2078   YZ=              0.0091

 ESP charges:
               1
     1  Ti   0.000000
     2  Ti   0.000000
     3  O    0.000000
     4  O    0.000000
     5  O    0.000000
     6  O    0.000000
     7  O    0.000000
     8  Ti   0.000000
     9  O    0.000000
    10  H    0.000000
    11  O    0.000000
    12  H    0.000000
 Sum of ESP charges =   0.00000

 Normal termination of Gaussian 16 at Mon Jun  7 17:28:38 2021.
