 Gaussian 16, Revision A.03,
 Gaussian 16:  ES64L-G16RevA.03 25-Dec-2016

 ----------------------------------------------------------------------
 #t B3LYP/LANL2DZ # SCRF=(Solvent=Water) # Gfinput IOP(6/7=3) Pop=hirsh
 feld Density Test # Units(Ang,Deg)
 ----------------------------------------------------------------------
 ----------
 3-tio2.pdb
 ----------
 Symbolic Z-matrix:
 Charge = -1 Multiplicity = 2

                         Standard orientation:
 ---------------------------------------------------------------------
 Center     Atomic      Atomic             Coordinates (Angstroms)
 Number     Number       Type             X           Y           Z
 ---------------------------------------------------------------------
      1         22           0        0.324438   -0.000061    0.053829
      2         22           0        3.068398   -0.000022   -0.378021
      3          8           0        1.657178   -1.232232   -0.154531
      4          8           0        1.657229    1.232168   -0.154271
      5          8           0       -1.109502   -0.000651    1.277439
      6          8           0       -1.036702    0.000279   -1.184431
      7          8           0        3.938728   -0.000232    1.026179
      8         22           0       -2.452522   -0.000061    0.028779
      9          8           0       -3.358912   -1.532770    0.002499
     10          1           0       -3.909082   -2.328490   -0.014451
     11          8           0       -3.357491    1.533290    0.002949
     12          1           0       -3.902061    2.332840   -0.013161
 ---------------------------------------------------------------------

 SCF Done:  E(UB3LYP) =  -702.831618781     A.U. after   31 cycles

 The electronic state is 2-A.
 Alpha  occ. eigenvalues --  -19.11879 -19.11875 -19.09437 -19.09184 -19.08898
 Alpha  occ. eigenvalues --  -19.08897 -19.07989  -2.41396  -2.39177  -2.38135
 Alpha  occ. eigenvalues --   -1.54229  -1.54057  -1.53101  -1.52446  -1.51910
 Alpha  occ. eigenvalues --   -1.51121  -1.50633  -1.50342  -1.50224  -0.95053
 Alpha  occ. eigenvalues --   -0.94434  -0.88342  -0.86744  -0.86118  -0.86111
 Alpha  occ. eigenvalues --   -0.83131  -0.49468  -0.48307  -0.36603  -0.34813
 Alpha  occ. eigenvalues --   -0.34511  -0.34048  -0.33562  -0.33212  -0.32956
 Alpha  occ. eigenvalues --   -0.32736  -0.32555  -0.31431  -0.31027  -0.30968
 Alpha  occ. eigenvalues --   -0.29593  -0.29179  -0.28191  -0.27931  -0.27064
 Alpha  occ. eigenvalues --   -0.26033  -0.25227  -0.11200
 Alpha virt. eigenvalues --   -0.05564  -0.02904  -0.02709  -0.01618  -0.01228
 Alpha virt. eigenvalues --   -0.00613  -0.00288   0.00117   0.01232   0.01573
 Alpha virt. eigenvalues --    0.01745   0.01913   0.02057   0.02226   0.02914

  Beta  occ. eigenvalues --  -19.11897 -19.11894 -19.09484 -19.09224 -19.08979
  Beta  occ. eigenvalues --  -19.08978 -19.08051  -2.40372  -2.37889  -2.36151
  Beta  occ. eigenvalues --   -1.53515  -1.53304  -1.51902  -1.51346  -1.50828
  Beta  occ. eigenvalues --   -1.49448  -1.49132  -1.47870  -1.47081  -0.95073
  Beta  occ. eigenvalues --   -0.94451  -0.88454  -0.86826  -0.86260  -0.86219
  Beta  occ. eigenvalues --   -0.83245  -0.49356  -0.48260  -0.36301  -0.34837
  Beta  occ. eigenvalues --   -0.34537  -0.33780  -0.33549  -0.33138  -0.32858
  Beta  occ. eigenvalues --   -0.32620  -0.32250  -0.31462  -0.31041  -0.30826
  Beta  occ. eigenvalues --   -0.29577  -0.29110  -0.28061  -0.28008  -0.27130
  Beta  occ. eigenvalues --   -0.26086  -0.25360
  Beta virt. eigenvalues --   -0.02950  -0.02523  -0.02323  -0.01336  -0.00938
  Beta virt. eigenvalues --   -0.00468  -0.00166  -0.00105   0.01022   0.01580
  Beta virt. eigenvalues --    0.01884   0.02211   0.02219   0.02327   0.03124

 Mulliken charges and spin densities:
               1          2
     1  Ti   1.198305   0.524498
     2  Ti   1.155931   0.340784
     3  O   -0.785760  -0.034422
     4  O   -0.785775  -0.034413
     5  O   -0.768642  -0.022057
     6  O   -0.774498  -0.024897
     7  O   -0.606906  -0.023241
     8  Ti   1.155165   0.280974
     9  O   -0.799263  -0.004959
    10  H    0.405271   0.001337
    11  O   -0.799124  -0.004940
    12  H    0.405295   0.001337
 Sum of Mulliken charges =  -1.00000   1.00000

 Dipole moment (field-independent basis, Debye):
    X=             -1.5158    Y=              0.0122    Z=             -6.5649  Tot=              6.7376
 StAtR1:  DoIntr=F IAtCor=3 NETot=      94 Failed=F Sum=  3.00D+01 SumC=  0.00D+00
 There are a total of      307336 grid points.
 ElSum from          density=       95.0000118813
 ElSum from atomic densities=      124.0000424543

 Hirshfeld populations at iteration   1 (CX, CA, CB, DipXYZ):
               1          2          3          4          5          6
     1  Ti   0.000000   5.980100   5.517200   0.014156   0.000091   0.163691
     2  Ti   0.000057   5.748907   5.438248   0.685005   0.000123  -1.201093
     3  O    0.000020   4.237063   4.244587  -0.001970   0.142990  -0.005411

 Normal termination of Gaussian 16 at Mon Jun  7 17:27:48 2021.
