 Gaussian 16, Revision A.03,
 Gaussian 16:  ES64L-G16RevA.03 25-Dec-2016

 ----------------------------------------------------------------------
 #P B3LYP/LANL2DZ # Opt # SCRF=(Solvent=Water) # Gfinput IOP(6/7=3) Pop
 =Full Density Test # Units(Ang,Deg)
 ----------------------------------------------------------------------

 ----------
 3-tio2.pdb
 ----------
 Symbolic Z-matrix:
 Charge =  0 Multiplicity = 1

 SCF Done:  E(RB3LYP) =  -702.661480489     A.U. after   20 cycles
 SCF Done:  E(RB3LYP) =  -702.680921244     A.U. after   15 cycles
 SCF Done:  E(RB3LYP) =  -702.693284512     A.U. after   15 cycles
 SCF Done:  E(RB3LYP) =  -702.695175114     A.U. after   14 cycles
 SCF Done:  E(RB3LYP) =  -702.695475000     A.U. after   14 cycles
 SCF Done:  E(RB3LYP) =  -702.694706582     A.U. after   15 cycles
 SCF Done:  E(RB3LYP) =  -702.695663994     A.U. after   13 cycles
 SCF Done:  E(RB3LYP) =  -702.698660735     A.U. after   15 cycles
 SCF Done:  E(RB3LYP) =  -702.714071346     A.U. after   17 cycles
 SCF Done:  E(RB3LYP) =  -702.719742944     A.U. after   17 cycles
 SCF Done:  E(RB3LYP) =  -702.726722074     A.U. after   12 cycles
 SCF Done:  E(RB3LYP) =  -702.726725421     A.U. after   11 cycles
 SCF Done:  E(RB3LYP) =  -702.726727176     A.U. after   10 cycles
 SCF Done:  E(RB3LYP) =  -702.726728875     A.U. after   10 cycles
 SCF Done:  E(RB3LYP) =  -702.726731248     A.U. after   11 cycles
 SCF Done:  E(RB3LYP) =  -702.726732584     A.U. after   10 cycles
 SCF Done:  E(RB3LYP) =  -702.726733453     A.U. after    9 cycles
 SCF Done:  E(RB3LYP) =  -702.726734162     A.U. after    9 cycles
 SCF Done:  E(RB3LYP) =  -702.726734617     A.U. after    9 cycles
 SCF Done:  E(RB3LYP) =  -702.726734796     A.U. after    8 cycles
 Optimization completed.
    -- Stationary point found.

                         Standard orientation:
 ---------------------------------------------------------------------
 Center     Atomic      Atomic             Coordinates (Angstroms)
 Number     Number       Type             X           Y           Z
 ---------------------------------------------------------------------
      1         22           0       -0.324438   -0.000065   -0.053833
      2         22           0       -3.068395   -0.000020    0.378024
      3          8           0       -1.657176   -1.232234    0.154530
      4          8           0       -1.657231    1.232166    0.154270
      5          8           0        1.109497   -0.000653   -1.277440
      6          8           0        1.036701    0.000275    1.184432
      7          8           0       -3.938733   -0.000227   -1.026178
      8         22           0        2.452524   -0.000056   -0.028782
      9          8           0        3.358907   -1.532775   -0.002498
     10          1           0        3.909077   -2.328485    0.014449
     11          8           0        3.357492    1.533292   -0.002945
     12          1           0        3.902065    2.332841    0.013161
 ---------------------------------------------------------------------

 The electronic state is 1-A.
 Alpha  occ. eigenvalues --  -19.14345 -19.14341 -19.14099 -19.13735 -19.13735
 Alpha  occ. eigenvalues --  -19.13605 -19.12369  -2.46312  -2.45659  -2.44802
 Alpha  occ. eigenvalues --   -1.59595  -1.58662  -1.58180  -1.57967  -1.57536
 Alpha  occ. eigenvalues --   -1.57452  -1.57298  -1.56660  -1.56503  -0.97250
 Alpha  occ. eigenvalues --   -0.96625  -0.92895  -0.91291  -0.90894  -0.90644
 Alpha  occ. eigenvalues --   -0.87102  -0.51836  -0.50795  -0.40698  -0.39501
 Alpha  occ. eigenvalues --   -0.39214  -0.38048  -0.37204  -0.36775  -0.36666
 Alpha  occ. eigenvalues --   -0.36274  -0.36173  -0.34929  -0.34346  -0.34075
 Alpha  occ. eigenvalues --   -0.32907  -0.32797  -0.31656  -0.31467  -0.30768
 Alpha  occ. eigenvalues --   -0.29763  -0.29055
 Alpha virt. eigenvalues --   -0.09697  -0.08800  -0.07378  -0.06553  -0.05964
 Alpha virt. eigenvalues --   -0.05183  -0.04100  -0.04041  -0.03048  -0.02040
 Alpha virt. eigenvalues --   -0.01668  -0.01031  -0.00543  -0.00207   0.00191

 Mulliken charges:
               1
     1  Ti   1.433210
     2  Ti   1.374296
     3  O   -0.736398
     4  O   -0.736417
     5  O   -0.727345
     6  O   -0.733717
     7  O   -0.523745
     8  Ti   1.333551
     9  O   -0.766953
    10  H    0.425140
    11  O   -0.766795
    12  H    0.425173
 Sum of Mulliken charges =  -0.00000

 Dipole moment (field-independent basis, Debye):
    X=             -0.3786    Y=              0.0124    Z=              6.3374  Tot=              6.3487
 Quadrupole moment (field-independent basis, Debye-Ang):
   XX=            -59.1460   YY=            -83.8220   ZZ=            -92.0558
   XY=              0.0069   XZ=            -25.2082   YZ=             -0.0091

 Normal termination of Gaussian 16 at Mon Jun  7 17:06:58 2021.
