 Gaussian 16, Revision A.03,
 Gaussian 16:  EM64L-G16RevA.03 25-Dec-2016

 ----------------------------------------------------------------------
 #t B3LYP/6-31G(d,p) # Gfinput IOP(6/7=3) Pop=hirshfeld Density Test #
 Units(Ang,Deg)
 ----------------------------------------------------------------------
 -------------------------
 alendronate-2-opt-g09.log
 -------------------------
 Symbolic Z-matrix:
 Charge =  1 Multiplicity = 2

                         Standard orientation:
 ---------------------------------------------------------------------
 Center     Atomic      Atomic             Coordinates (Angstroms)
 Number     Number       Type             X           Y           Z
 ---------------------------------------------------------------------
      1          6           0       -0.126930   -0.175079   -0.392969
      2          8           0        0.017060   -0.274099   -1.798339
      3          1           0       -0.786120    0.063161   -2.221049
      4         15           0       -1.633300   -1.123738    0.173891
      5         15           0       -0.371549    1.614501    0.120261
      6          8           0       -2.770560   -0.777608   -0.913779
      7          1           0       -2.951670    0.181712   -0.894929
      8          8           0       -1.376891   -2.675438   -0.158339
      9          1           0       -1.448161   -3.208628    0.647251
     10          8           0       -0.691429    1.562441    1.685551
     11          1           0       -1.231060    0.765352    1.927031
     12          8           0       -1.827059    1.843412   -0.651209
     13          1           0       -1.941699    2.780552   -0.872599
     14          8           0        0.631441    2.625731   -0.274319
     15          8           0       -1.953550   -0.834948    1.610411
     16          6           0        1.132760   -0.780679    0.259101
     17          6           0        2.457500   -0.155100   -0.201519
     18          1           0        1.132299   -1.848989    0.012581
     19          1           0        1.030620   -0.699129    1.347531
     20          6           0        3.660290   -0.898050    0.385501
     21          1           0        2.502170   -0.192220   -1.295869
     22          1           0        2.513300    0.899830    0.079551
     23          1           0        3.624350   -0.840860    1.481341
     24          1           0        3.581879   -1.971650    0.127741
     25          7           0        4.908330   -0.267831   -0.051349
     26          1           0        5.703870   -0.744001    0.366711
     27          1           0        5.010840   -0.374231   -1.058589
 ---------------------------------------------------------------------

 SCF Done:  E(UB3LYP) =  -1424.11491881     A.U. after   24 cycles

 The electronic state is 2-A.
 Alpha  occ. eigenvalues --  -77.39113 -77.37714 -19.36097 -19.34533 -19.34270
 Alpha  occ. eigenvalues --  -19.33779 -19.32286 -19.28843 -19.27444 -14.57891
 Alpha  occ. eigenvalues --  -10.44871 -10.40173 -10.36772 -10.35068  -6.84040
 Alpha  occ. eigenvalues --   -6.82709  -5.00420  -5.00326  -5.00245  -4.99114
 Alpha  occ. eigenvalues --   -4.98995  -4.98866  -1.24543  -1.22647  -1.21797
 Alpha  occ. eigenvalues --   -1.18870  -1.17700  -1.13279  -1.11994  -1.11377
 Alpha  occ. eigenvalues --   -0.97297  -0.90921  -0.83381  -0.79788  -0.77767
 Alpha  occ. eigenvalues --   -0.75359  -0.72217  -0.70481  -0.69587  -0.68615
 Alpha  occ. eigenvalues --   -0.67216  -0.66411  -0.63003  -0.62292  -0.60713
 Alpha  occ. eigenvalues --   -0.60136  -0.58571  -0.57398  -0.56609  -0.55586
 Alpha  occ. eigenvalues --   -0.54743  -0.53708  -0.53218  -0.52862  -0.51918
 Alpha  occ. eigenvalues --   -0.51136  -0.50176  -0.49533  -0.49239  -0.48542
 Alpha  occ. eigenvalues --   -0.48399  -0.46093  -0.45747  -0.44636  -0.43474
 Alpha virt. eigenvalues --   -0.12918  -0.11073  -0.09592  -0.09266  -0.07284
 Alpha virt. eigenvalues --   -0.06054  -0.04661  -0.04044  -0.03945  -0.03036
 Alpha virt. eigenvalues --   -0.02282  -0.01687  -0.00547  -0.00393   0.00712

  Beta  occ. eigenvalues --  -77.39099 -77.37712 -19.35744 -19.34499 -19.34251
  Beta  occ. eigenvalues --  -19.33745 -19.32227 -19.28688 -19.27226 -14.56853
  Beta  occ. eigenvalues --  -10.44756 -10.40152 -10.36765 -10.35032  -6.84024
  Beta  occ. eigenvalues --   -6.82707  -5.00414  -5.00319  -5.00196  -4.99120
  Beta  occ. eigenvalues --   -4.98992  -4.98852  -1.24276  -1.22362  -1.21378
  Beta  occ. eigenvalues --   -1.18777  -1.17590  -1.12939  -1.11517  -1.09505
  Beta  occ. eigenvalues --   -0.96982  -0.90336  -0.82923  -0.79507  -0.77483
  Beta  occ. eigenvalues --   -0.75167  -0.72014  -0.69966  -0.69264  -0.68401
  Beta  occ. eigenvalues --   -0.66598  -0.65375  -0.62527  -0.62054  -0.60552
  Beta  occ. eigenvalues --   -0.59795  -0.58255  -0.56631  -0.56252  -0.55313
  Beta  occ. eigenvalues --   -0.54391  -0.53331  -0.52472  -0.52450  -0.51403
  Beta  occ. eigenvalues --   -0.50936  -0.49795  -0.49099  -0.48647  -0.47595
  Beta  occ. eigenvalues --   -0.45917  -0.44663  -0.44412  -0.41097
  Beta virt. eigenvalues --   -0.38851  -0.12721  -0.10894  -0.09280  -0.09009
  Beta virt. eigenvalues --   -0.07039  -0.05884  -0.04362  -0.03840  -0.03686
  Beta virt. eigenvalues --   -0.02866  -0.02035  -0.01459  -0.00350  -0.00154

 Mulliken charges and spin densities:
               1          2
     1  C   -0.172056   0.065157
     2  O   -0.439816   0.133266
     3  H    0.352544  -0.003404
     4  P    1.156276   0.020075
     5  P    1.160029   0.005220
     6  O   -0.533764   0.012097
     7  H    0.376195  -0.000367
     8  O   -0.522044   0.011824
     9  H    0.377412  -0.000032
    10  O   -0.543423   0.020867
    11  H    0.389970  -0.000911
    12  O   -0.634067   0.006308
    13  H    0.381182   0.000501
    14  O   -0.467656   0.088964
    15  O   -0.556762   0.061072
    16  C   -0.230441   0.002617
    17  C   -0.218588   0.020118
    18  H    0.157051   0.006695
    19  H    0.156346  -0.000300
    20  C   -0.119242  -0.003903
    21  H    0.153282  -0.000630
    22  H    0.184922   0.000002
    23  H    0.178308   0.010715
    24  H    0.175707   0.056647
    25  N   -0.411446   0.497109
    26  H    0.328181  -0.004458
    27  H    0.321900  -0.005249
 Sum of Mulliken charges =   1.00000   1.00000

 Dipole moment (field-independent basis, Debye):
    X=              8.0743    Y=             -3.8478    Z=             -1.3606  Tot=              9.0472
 There are a total of      610620 grid points.
 ElSum from          density=      129.0000093906
 ElSum from atomic densities=      130.0000227117
 Hirshfeld populations at iteration   1 (CA, CB, DipXYZ):
               1          2          3          4          5
     1  C    3.015543   2.953973   0.051397  -0.015942  -0.081290
     2  O    4.125013   4.004934  -0.082419   0.043806   0.028452
     3  H    0.409740   0.406185  -0.135899   0.062498  -0.138635
     4  P    7.257547   7.229697  -0.031146  -0.090064  -0.068740
     5  P    7.259809   7.239656  -0.070561   0.005516   0.057586

 Normal termination of Gaussian 16 at Fri Jan 22 01:54:31 2021.
