 Gaussian 16, Revision A.03,
 Gaussian 16:  EM64L-G16RevA.03 25-Dec-2016

 ----------------------------------------------------------------------
 #t B3LYP/6-31G(d,p) # Gfinput IOP(6/7=3) Pop=hirshfeld Density Test #
 Units(Ang,Deg)
 ----------------------------------------------------------------------
 -------------------------
 alendronate-2-opt-g09.log
 -------------------------
 Symbolic Z-matrix:
 Charge =  0 Multiplicity = 1

                         Standard orientation:
 ---------------------------------------------------------------------
 Center     Atomic      Atomic             Coordinates (Angstroms)
 Number     Number       Type             X           Y           Z
 ---------------------------------------------------------------------
      1          6           0       -0.126930   -0.175079   -0.392969
      2          8           0        0.017060   -0.274099   -1.798339
      3          1           0       -0.786120    0.063161   -2.221049
      4         15           0       -1.633300   -1.123738    0.173891
      5         15           0       -0.371549    1.614501    0.120261
      6          8           0       -2.770560   -0.777608   -0.913779
      7          1           0       -2.951670    0.181712   -0.894929
      8          8           0       -1.376891   -2.675438   -0.158339
      9          1           0       -1.448161   -3.208628    0.647251
     10          8           0       -0.691429    1.562441    1.685551
     11          1           0       -1.231060    0.765352    1.927031
     12          8           0       -1.827059    1.843412   -0.651209
     13          1           0       -1.941699    2.780552   -0.872599
     14          8           0        0.631441    2.625731   -0.274319
     15          8           0       -1.953550   -0.834948    1.610411
     16          6           0        1.132760   -0.780679    0.259101
     17          6           0        2.457500   -0.155100   -0.201519
     18          1           0        1.132299   -1.848989    0.012581
     19          1           0        1.030620   -0.699129    1.347531
     20          6           0        3.660290   -0.898050    0.385501
     21          1           0        2.502170   -0.192220   -1.295869
     22          1           0        2.513300    0.899830    0.079551
     23          1           0        3.624350   -0.840860    1.481341
     24          1           0        3.581879   -1.971650    0.127741
     25          7           0        4.908330   -0.267831   -0.051349
     26          1           0        5.703870   -0.744001    0.366711
     27          1           0        5.010840   -0.374231   -1.058589
 ---------------------------------------------------------------------

 SCF Done:  E(RB3LYP) =  -1424.43392917     A.U. after   14 cycles

 The electronic state is 1-A.
 Alpha  occ. eigenvalues --  -77.24805 -77.22984 -19.21594 -19.21141 -19.20736
 Alpha  occ. eigenvalues --  -19.18573 -19.18329 -19.14683 -19.12193 -14.30824
 Alpha  occ. eigenvalues --  -10.28561 -10.20949 -10.20668 -10.17859  -6.69780
 Alpha  occ. eigenvalues --   -6.67978  -4.86213  -4.86097  -4.85872  -4.84437
 Alpha  occ. eigenvalues --   -4.84262  -4.84070  -1.10959  -1.08817  -1.06123
 Alpha  occ. eigenvalues --   -1.05607  -1.04254  -0.99422  -0.97129  -0.87615
 Alpha  occ. eigenvalues --   -0.80608  -0.73297  -0.66891  -0.65964  -0.61093
 Alpha  occ. eigenvalues --   -0.58992  -0.57674  -0.55665  -0.55217  -0.52392
 Alpha  occ. eigenvalues --   -0.49021  -0.47982  -0.47284  -0.46508  -0.45459
 Alpha  occ. eigenvalues --   -0.44780  -0.43404  -0.41947  -0.41101  -0.40916
 Alpha  occ. eigenvalues --   -0.38904  -0.38595  -0.38252  -0.38124  -0.36681
 Alpha  occ. eigenvalues --   -0.35465  -0.35361  -0.34375  -0.33789  -0.32988
 Alpha  occ. eigenvalues --   -0.32590  -0.30649  -0.30243  -0.27584  -0.23031
 Alpha virt. eigenvalues --    0.00636   0.02376   0.04732   0.06016   0.07586
 Alpha virt. eigenvalues --    0.08432   0.09978   0.10511   0.10583   0.11621
 Alpha virt. eigenvalues --    0.12487   0.13050   0.14031   0.14519   0.15527

 Mulliken charges:
               1
     1  C   -0.152281
     2  O   -0.511469
     3  H    0.320580
     4  P    1.116291
     5  P    1.123591
     6  O   -0.560837
     7  H    0.360889
     8  O   -0.539535
     9  H    0.357101
    10  O   -0.572543
    11  H    0.375053
    12  O   -0.644222
    13  H    0.355592
    14  O   -0.520994
    15  O   -0.605212
    16  C   -0.214951
    17  C   -0.192355
    18  H    0.123197
    19  H    0.122223
    20  C   -0.052001
    21  H    0.117821
    22  H    0.155610
    23  H    0.100010
    24  H    0.067471
    25  N   -0.599858
    26  H    0.235337
    27  H    0.235490
 Sum of Mulliken charges =  -0.00000

 Dipole moment (field-independent basis, Debye):
    X=             -1.7283    Y=             -3.0006    Z=             -1.1121  Tot=              3.6369
 There are a total of      610620 grid points.
 ElSum from          density=      130.0000101284
 ElSum from atomic densities=      130.0000227117
 Hirshfeld populations at iteration   1 (CA, CB, DipXYZ):
               1          2          3          4          5
     1  C    2.995651   2.995651   0.060606  -0.015486  -0.082270
     2  O    4.099262   4.099262  -0.084485   0.046651   0.057772
     3  H    0.420771   0.420771  -0.134475   0.062044  -0.130755
     4  P    7.258772   7.258772  -0.034478  -0.094806  -0.071274
     5  P    7.264084   7.264084  -0.076550  -0.010869   0.060451

 Normal termination of Gaussian 16 at Fri Jan 22 01:55:20 2021.
