 Gaussian 16, Revision A.03,
 Gaussian 16:  EM64L-G16RevA.03 25-Dec-2016

 ----------------------------------------------------------------------
 #t B3LYP/6-31G(d,p) # Gfinput IOP(6/7=3) Pop=hirshfeld Density Test #
 Units(Ang,Deg)
 ----------------------------------------------------------------------
 -------------------------
 alendronate-2-opt-g09.log
 -------------------------
 Symbolic Z-matrix:
 Charge = -1 Multiplicity = 2

                         Standard orientation:
 ---------------------------------------------------------------------
 Center     Atomic      Atomic             Coordinates (Angstroms)
 Number     Number       Type             X           Y           Z
 ---------------------------------------------------------------------
      1          6           0       -0.126930   -0.175079   -0.392969
      2          8           0        0.017060   -0.274099   -1.798339
      3          1           0       -0.786120    0.063161   -2.221049
      4         15           0       -1.633300   -1.123738    0.173891
      5         15           0       -0.371549    1.614501    0.120261
      6          8           0       -2.770560   -0.777608   -0.913779
      7          1           0       -2.951670    0.181712   -0.894929
      8          8           0       -1.376891   -2.675438   -0.158339
      9          1           0       -1.448161   -3.208628    0.647251
     10          8           0       -0.691429    1.562441    1.685551
     11          1           0       -1.231060    0.765352    1.927031
     12          8           0       -1.827059    1.843412   -0.651209
     13          1           0       -1.941699    2.780552   -0.872599
     14          8           0        0.631441    2.625731   -0.274319
     15          8           0       -1.953550   -0.834948    1.610411
     16          6           0        1.132760   -0.780679    0.259101
     17          6           0        2.457500   -0.155100   -0.201519
     18          1           0        1.132299   -1.848989    0.012581
     19          1           0        1.030620   -0.699129    1.347531
     20          6           0        3.660290   -0.898050    0.385501
     21          1           0        2.502170   -0.192220   -1.295869
     22          1           0        2.513300    0.899830    0.079551
     23          1           0        3.624350   -0.840860    1.481341
     24          1           0        3.581879   -1.971650    0.127741
     25          7           0        4.908330   -0.267831   -0.051349
     26          1           0        5.703870   -0.744001    0.366711
     27          1           0        5.010840   -0.374231   -1.058589
 ---------------------------------------------------------------------

 SCF Done:  E(UB3LYP) =  -1424.36541641     A.U. after   23 cycles

 The electronic state is 2-A.
 Alpha  occ. eigenvalues --  -77.05924 -77.05716 -19.03327 -19.02345 -19.02262
 Alpha  occ. eigenvalues --  -19.02062 -19.01528 -18.97570 -18.95501 -14.21383
 Alpha  occ. eigenvalues --  -10.10963 -10.09901 -10.06167 -10.05210  -6.50972
 Alpha  occ. eigenvalues --   -6.50698  -4.67400  -4.67277  -4.67139  -4.67046
 Alpha  occ. eigenvalues --   -4.66971  -4.66781  -0.92883  -0.91594  -0.88863
 Alpha  occ. eigenvalues --   -0.87853  -0.87364  -0.82260  -0.80792  -0.77801
 Alpha  occ. eigenvalues --   -0.66154  -0.59065  -0.51901  -0.48373  -0.47217
 Alpha  occ. eigenvalues --   -0.44204  -0.41339  -0.38794  -0.38328  -0.37230
 Alpha  occ. eigenvalues --   -0.35300  -0.34488  -0.32086  -0.31339  -0.30092
 Alpha  occ. eigenvalues --   -0.28674  -0.27946  -0.26709  -0.26167  -0.24823
 Alpha  occ. eigenvalues --   -0.24192  -0.23030  -0.22487  -0.22209  -0.21306
 Alpha  occ. eigenvalues --   -0.20712  -0.19511  -0.18890  -0.18101  -0.17098
 Alpha  occ. eigenvalues --   -0.15649  -0.14580  -0.14181  -0.13374  -0.10864
 Alpha  occ. eigenvalues --    0.12994
 Alpha virt. eigenvalues --    0.17475   0.17623   0.20801   0.21516   0.22291
 Alpha virt. eigenvalues --    0.23292   0.23900   0.25921   0.26185   0.26833
 Alpha virt. eigenvalues --    0.27631   0.28248   0.28896   0.30239   0.30327

  Beta  occ. eigenvalues --  -77.05860 -77.05681 -19.03123 -19.02300 -19.02049
  Beta  occ. eigenvalues --  -19.01705 -19.01411 -18.97541 -18.95362 -14.21383
  Beta  occ. eigenvalues --  -10.10828 -10.09893 -10.06148 -10.05200  -6.50882
  Beta  occ. eigenvalues --   -6.50642  -4.67344  -4.67183  -4.67094  -4.66963
  Beta  occ. eigenvalues --   -4.66926  -4.66749  -0.92458  -0.91156  -0.88577
  Beta  occ. eigenvalues --   -0.87500  -0.86766  -0.82108  -0.80394  -0.77796
  Beta  occ. eigenvalues --   -0.66050  -0.58844  -0.51667  -0.47938  -0.47021
  Beta  occ. eigenvalues --   -0.44037  -0.41131  -0.38584  -0.38170  -0.36854
  Beta  occ. eigenvalues --   -0.35153  -0.34331  -0.32026  -0.31123  -0.29903
  Beta  occ. eigenvalues --   -0.28536  -0.27800  -0.26579  -0.26069  -0.24683
  Beta  occ. eigenvalues --   -0.23926  -0.22888  -0.22399  -0.21995  -0.21211
  Beta  occ. eigenvalues --   -0.20503  -0.19298  -0.18694  -0.17854  -0.16923
  Beta  occ. eigenvalues --   -0.15526  -0.14411  -0.14025  -0.13361  -0.10667
  Beta virt. eigenvalues --    0.17565   0.17761   0.19188   0.21535   0.22538
  Beta virt. eigenvalues --    0.22867   0.23379   0.24825   0.26474   0.26521
  Beta virt. eigenvalues --    0.27425   0.28327   0.28806   0.29212   0.30661

 Mulliken charges and spin densities:
               1          2
     1  C   -0.138982   0.077965
     2  O   -0.512024  -0.016671
     3  H    0.227113   0.094731
     4  P    0.954003   0.216156
     5  P    0.966044   0.180794
     6  O   -0.535124  -0.023510
     7  H    0.226970   0.132820
     8  O   -0.479243  -0.039622
     9  H    0.129612   0.228058
    10  O   -0.589118  -0.007137
    11  H    0.334492   0.028949
    12  O   -0.584801  -0.027958
    13  H    0.208877   0.130752
    14  O   -0.546013  -0.003087
    15  O   -0.636143  -0.001988
    16  C   -0.181439  -0.013017
    17  C   -0.176028   0.002298
    18  H    0.091684   0.009922
    19  H    0.081086   0.021853
    20  C   -0.053245   0.004384
    21  H    0.096353   0.002550
    22  H    0.141483   0.001482
    23  H    0.084839   0.000670
    24  H    0.054147  -0.000275
    25  N   -0.601778  -0.000238
    26  H    0.212674   0.000048
    27  H    0.224558   0.000071
 Sum of Mulliken charges =  -1.00000   1.00000

 Dipole moment (field-independent basis, Debye):
    X=              2.6366    Y=             -2.0357    Z=             -0.4949  Tot=              3.3676
 There are a total of      610620 grid points.
 ElSum from          density=      131.0000201673
 ElSum from atomic densities=      130.0000227117
 Hirshfeld populations at iteration   1 (CA, CB, DipXYZ):
               1          2          3          4          5
     1  C    3.039586   2.974925   0.066372  -0.018496  -0.090280
     2  O    4.137101   4.101755  -0.086898   0.046685   0.084844
     3  H    0.471845   0.419826  -0.096540   0.044211  -0.094860
     4  P    7.357149   7.239948  -0.005023   0.006461  -0.027090
     5  P    7.346328   7.253391  -0.087069  -0.084776   0.090531

 Normal termination of Gaussian 16 at Fri Jan 22 01:52:27 2021.
