 Gaussian 16, Revision A.03,
 Gaussian 16:  EM64L-G16RevA.03 25-Dec-2016

 ----------------------------------------------------------------------
 #t B3LYP/6-31G(d,p) scrf=(solvent=water) # Gfinput IOP(6/7=3) Pop=hirs
 hfeld Density Test # Units(Ang,Deg)
 ----------------------------------------------------------------------
 -------------------------
 w-alendronate-opt-g09.log
 -------------------------
 Symbolic Z-matrix:
 Charge = -1 Multiplicity = 2

                         Standard orientation:
 ---------------------------------------------------------------------
 Center     Atomic      Atomic             Coordinates (Angstroms)
 Number     Number       Type             X           Y           Z
 ---------------------------------------------------------------------
      1          6           0       -0.227590   -0.147061   -0.336049
      2          8           0       -0.142440   -0.209121   -1.751299
      3          1           0       -0.997340    0.063909   -2.120669
      4         15           0       -1.752800   -1.073792    0.233261
      5         15           0       -0.293241    1.632549    0.235731
      6          8           0       -2.777200   -0.694082   -0.955859
      7          1           0       -3.404600   -1.404902   -1.163299
      8          8           0       -1.472149   -2.633871   -0.102209
      9          1           0       -1.283069   -3.148321    0.698291
     10          8           0       -1.749921    2.039148   -0.326549
     11          1           0       -1.913071    2.996158   -0.328959
     12          8           0        0.674359    2.455599   -0.770649
     13          1           0        1.472469    2.771130   -0.319479
     14          8           0       -0.004151    1.863749    1.677761
     15          8           0       -2.174800   -0.806312    1.634821
     16          6           0        1.011720   -0.859850    0.249181
     17          6           0        2.370100   -0.268160   -0.153399
     18          1           0        0.962191   -1.896440   -0.099979
     19          1           0        0.919420   -0.879100    1.340311
     20          6           0        3.524400   -1.190579    0.248621
     21          1           0        2.404020   -0.101020   -1.233849
     22          1           0        2.521069    0.704310    0.331431
     23          1           0        3.450730   -1.413359    1.327131
     24          1           0        3.417711   -2.148779   -0.274709
     25          7           0        4.812890   -0.602029   -0.144359
     26          1           0        4.990490    0.217681    0.434741
     27          1           0        5.559000   -1.255409    0.086471
 ---------------------------------------------------------------------

 SCF Done:  E(UB3LYP) =  -1424.43120327     A.U. after   24 cycles

 The electronic state is 2-A.
 Alpha  occ. eigenvalues --  -77.20035 -77.18428 -19.17057 -19.16535 -19.15528
 Alpha  occ. eigenvalues --  -19.14284 -19.13893 -19.10248 -19.09334 -14.30732
 Alpha  occ. eigenvalues --  -10.23688 -10.19911 -10.18222 -10.17268  -6.64971
 Alpha  occ. eigenvalues --   -6.63444  -4.81433  -4.81282  -4.81037  -4.79885
 Alpha  occ. eigenvalues --   -4.79729  -4.79510  -1.06471  -1.04911  -1.01607
 Alpha  occ. eigenvalues --   -1.01511  -0.99655  -0.95174  -0.94311  -0.87249
 Alpha  occ. eigenvalues --   -0.78092  -0.70844  -0.64226  -0.62055  -0.58592
 Alpha  occ. eigenvalues --   -0.56508  -0.54589  -0.52571  -0.50543  -0.47835
 Alpha  occ. eigenvalues --   -0.47031  -0.45049  -0.44212  -0.43790  -0.42744
 Alpha  occ. eigenvalues --   -0.41006  -0.40396  -0.38768  -0.38343  -0.37297
 Alpha  occ. eigenvalues --   -0.36577  -0.35880  -0.35281  -0.34231  -0.34010
 Alpha  occ. eigenvalues --   -0.33484  -0.33174  -0.31355  -0.31056  -0.29881
 Alpha  occ. eigenvalues --   -0.28619  -0.27954  -0.27607  -0.24225  -0.23495
 Alpha  occ. eigenvalues --    0.00840
 Alpha virt. eigenvalues --    0.05516   0.05839   0.07528   0.08830   0.09354
 Alpha virt. eigenvalues --    0.11641   0.12358   0.12882   0.14226   0.14740
 Alpha virt. eigenvalues --    0.15318   0.15965   0.16322   0.17366   0.17870

  Beta  occ. eigenvalues --  -77.20015 -77.18368 -19.16969 -19.16398 -19.15306
  Beta  occ. eigenvalues --  -19.14174 -19.13460 -19.10222 -19.09265 -14.30732
  Beta  occ. eigenvalues --  -10.23502 -10.19898 -10.18211 -10.17245  -6.64943
  Beta  occ. eigenvalues --   -6.63355  -4.81409  -4.81254  -4.81017  -4.79821
  Beta  occ. eigenvalues --   -4.79662  -4.79437  -1.06228  -1.04326  -1.01347
  Beta  occ. eigenvalues --   -1.01218  -0.98860  -0.95084  -0.94061  -0.87240
  Beta  occ. eigenvalues --   -0.77949  -0.70586  -0.64059  -0.61675  -0.58433
  Beta  occ. eigenvalues --   -0.56324  -0.54353  -0.52194  -0.50173  -0.47778
  Beta  occ. eigenvalues --   -0.46869  -0.44947  -0.44122  -0.43604  -0.42670
  Beta  occ. eigenvalues --   -0.40831  -0.40261  -0.38481  -0.38225  -0.37223
  Beta  occ. eigenvalues --   -0.36317  -0.35737  -0.35163  -0.34121  -0.33751
  Beta  occ. eigenvalues --   -0.33389  -0.32947  -0.31185  -0.30846  -0.29727
  Beta  occ. eigenvalues --   -0.28518  -0.27727  -0.27424  -0.24048  -0.23488
  Beta virt. eigenvalues --    0.05339   0.06484   0.07535   0.08130   0.09013
  Beta virt. eigenvalues --    0.10401   0.12029   0.13116   0.13598   0.14456
  Beta virt. eigenvalues --    0.15166   0.15980   0.16265   0.16743   0.17997

 Mulliken charges and spin densities:
               1          2
     1  C   -0.122264   0.089750
     2  O   -0.531588  -0.017397
     3  H    0.243674   0.096159
     4  P    0.888856   0.239349
     5  P    1.003744   0.104136
     6  O   -0.500180  -0.048100
     7  H    0.082415   0.289031
     8  O   -0.535061  -0.031504
     9  H    0.210912   0.152633
    10  O   -0.564019  -0.010612
    11  H    0.310417   0.050493
    12  O   -0.563549  -0.010460
    13  H    0.299198   0.059951
    14  O   -0.611081   0.000046
    15  O   -0.610853  -0.000316
    16  C   -0.190680  -0.008022
    17  C   -0.171832   0.001519
    18  H    0.100843   0.007912
    19  H    0.096431   0.020810
    20  C   -0.058592   0.007212
    21  H    0.104457   0.001863
    22  H    0.083334   0.005931
    23  H    0.081044  -0.000110
    24  H    0.100852  -0.000391
    25  N   -0.646194  -0.000225
    26  H    0.249415   0.000061
    27  H    0.250301   0.000278
 Sum of Mulliken charges =  -1.00000   1.00000

 Dipole moment (field-independent basis, Debye):
    X=              7.9564    Y=              0.9906    Z=             -1.0945  Tot=              8.0922
 There are a total of      610620 grid points.
 ElSum from          density=      130.9999831163
 ElSum from atomic densities=      129.9999702799
 Hirshfeld populations at iteration   1 (CA, CB, DipXYZ):
               1          2          3          4          5
     1  C    3.044077   2.971258   0.047344  -0.019874  -0.087394
     2  O    4.142161   4.109552  -0.095221   0.036565   0.093200
     3  H    0.473168   0.421542  -0.091783   0.049014  -0.092413
     4  P    7.371312   7.253537   0.097942  -0.043493  -0.061506
     5  P    7.316475   7.261722  -0.009070   0.042527  -0.094578

 Normal termination of Gaussian 16 at Fri Jan 22 02:39:56 2021.
