 Gaussian 16, Revision A.03,
 Gaussian 16:  EM64L-G16RevA.03 25-Dec-2016

 ----------------------------------------------------------------------
 #t B3LYP/6-31G(d,p) scrf=(solvent=water) # Gfinput IOP(6/7=3) Pop=hirs
 hfeld Density Test # Units(Ang,Deg)
 ----------------------------------------------------------------------
 -------------------------
 w-alendronate-opt-g09.log
 -------------------------
 Symbolic Z-matrix:
 Charge =  0 Multiplicity = 1

                         Standard orientation:
 ---------------------------------------------------------------------
 Center     Atomic      Atomic             Coordinates (Angstroms)
 Number     Number       Type             X           Y           Z
 ---------------------------------------------------------------------
      1          6           0       -0.227590   -0.147061   -0.336049
      2          8           0       -0.142440   -0.209121   -1.751299
      3          1           0       -0.997340    0.063909   -2.120669
      4         15           0       -1.752800   -1.073792    0.233261
      5         15           0       -0.293241    1.632549    0.235731
      6          8           0       -2.777200   -0.694082   -0.955859
      7          1           0       -3.404600   -1.404902   -1.163299
      8          8           0       -1.472149   -2.633871   -0.102209
      9          1           0       -1.283069   -3.148321    0.698291
     10          8           0       -1.749921    2.039148   -0.326549
     11          1           0       -1.913071    2.996158   -0.328959
     12          8           0        0.674359    2.455599   -0.770649
     13          1           0        1.472469    2.771130   -0.319479
     14          8           0       -0.004151    1.863749    1.677761
     15          8           0       -2.174800   -0.806312    1.634821
     16          6           0        1.011720   -0.859850    0.249181
     17          6           0        2.370100   -0.268160   -0.153399
     18          1           0        0.962191   -1.896440   -0.099979
     19          1           0        0.919420   -0.879100    1.340311
     20          6           0        3.524400   -1.190579    0.248621
     21          1           0        2.404020   -0.101020   -1.233849
     22          1           0        2.521069    0.704310    0.331431
     23          1           0        3.450730   -1.413359    1.327131
     24          1           0        3.417711   -2.148779   -0.274709
     25          7           0        4.812890   -0.602029   -0.144359
     26          1           0        4.990490    0.217681    0.434741
     27          1           0        5.559000   -1.255409    0.086471
 ---------------------------------------------------------------------

 SCF Done:  E(RB3LYP) =  -1424.44942574     A.U. after   12 cycles

 The electronic state is 1-A.
 Alpha  occ. eigenvalues --  -77.23500 -77.23104 -19.19904 -19.19876 -19.19607
 Alpha  occ. eigenvalues --  -19.19329 -19.17772 -19.12823 -19.12463 -14.31162
 Alpha  occ. eigenvalues --  -10.28035 -10.20711 -10.20476 -10.18712  -6.68400
 Alpha  occ. eigenvalues --   -6.68009  -4.84870  -4.84701  -4.84489  -4.84465
 Alpha  occ. eigenvalues --   -4.84312  -4.84108  -1.09524  -1.08749  -1.04924
 Alpha  occ. eigenvalues --   -1.04211  -1.03951  -0.97751  -0.97242  -0.87787
 Alpha  occ. eigenvalues --   -0.80329  -0.73156  -0.66484  -0.65691  -0.60485
 Alpha  occ. eigenvalues --   -0.58851  -0.57836  -0.56164  -0.53597  -0.50335
 Alpha  occ. eigenvalues --   -0.48361  -0.47404  -0.46980  -0.45802  -0.44418
 Alpha  occ. eigenvalues --   -0.43743  -0.42603  -0.42185  -0.40821  -0.39833
 Alpha  occ. eigenvalues --   -0.38855  -0.38419  -0.37607  -0.37325  -0.36208
 Alpha  occ. eigenvalues --   -0.35857  -0.35241  -0.34154  -0.33121  -0.32381
 Alpha  occ. eigenvalues --   -0.31165  -0.30686  -0.30449  -0.27241  -0.23938
 Alpha virt. eigenvalues --    0.02639   0.03807   0.05022   0.05321   0.07608
 Alpha virt. eigenvalues --    0.08781   0.10355   0.10854   0.11262   0.12131
 Alpha virt. eigenvalues --    0.13104   0.14153   0.14328   0.14772   0.14947

 Mulliken charges:
               1
     1  C   -0.131746
     2  O   -0.537958
     3  H    0.346154
     4  P    1.114863
     5  P    1.109557
     6  O   -0.585599
     7  H    0.378017
     8  O   -0.576807
     9  H    0.374457
    10  O   -0.581402
    11  H    0.374067
    12  O   -0.578770
    13  H    0.369054
    14  O   -0.587813
    15  O   -0.580795
    16  C   -0.216125
    17  C   -0.187924
    18  H    0.133350
    19  H    0.138915
    20  C   -0.056904
    21  H    0.121438
    22  H    0.101444
    23  H    0.089390
    24  H    0.108954
    25  N   -0.644970
    26  H    0.252585
    27  H    0.254570
 Sum of Mulliken charges =  -0.00000

 Dipole moment (field-independent basis, Debye):
    X=              0.9580    Y=             -1.8936    Z=             -2.5466  Tot=              3.3149
 There are a total of      610620 grid points.
 ElSum from          density=      129.9999916025
 ElSum from atomic densities=      129.9999702799
 Hirshfeld populations at iteration   1 (CA, CB, DipXYZ):
               1          2          3          4          5
     1  C    2.994206   2.994206   0.040008  -0.016817  -0.073718
     2  O    4.107659   4.107659  -0.101541   0.037171   0.068041
     3  H    0.420029   0.420029  -0.136720   0.060963  -0.125881
     4  P    7.263433   7.263433  -0.011182  -0.104827  -0.101247
     5  P    7.266573   7.266573  -0.005591   0.071635  -0.114531

 Normal termination of Gaussian 16 at Fri Jan 22 02:43:47 2021.
