 Gaussian 16, Revision A.03,
 Gaussian 16:  EM64L-G16RevA.03 25-Dec-2016

 ----------------------------------------------------------------------
 #t B3LYP/6-31G(d,p) scrf=(solvent=water) # Gfinput IOP(6/7=3) Pop=hirs
 hfeld Density Test # Units(Ang,Deg)
 ----------------------------------------------------------------------
 -------------------------
 w-alendronate-opt-g09.log
 -------------------------
 Symbolic Z-matrix:
 Charge =  1 Multiplicity = 2

                         Standard orientation:
 ---------------------------------------------------------------------
 Center     Atomic      Atomic             Coordinates (Angstroms)
 Number     Number       Type             X           Y           Z
 ---------------------------------------------------------------------
      1          6           0       -0.227590   -0.147061   -0.336049
      2          8           0       -0.142440   -0.209121   -1.751299
      3          1           0       -0.997340    0.063909   -2.120669
      4         15           0       -1.752800   -1.073792    0.233261
      5         15           0       -0.293241    1.632549    0.235731
      6          8           0       -2.777200   -0.694082   -0.955859
      7          1           0       -3.404600   -1.404902   -1.163299
      8          8           0       -1.472149   -2.633871   -0.102209
      9          1           0       -1.283069   -3.148321    0.698291
     10          8           0       -1.749921    2.039148   -0.326549
     11          1           0       -1.913071    2.996158   -0.328959
     12          8           0        0.674359    2.455599   -0.770649
     13          1           0        1.472469    2.771130   -0.319479
     14          8           0       -0.004151    1.863749    1.677761
     15          8           0       -2.174800   -0.806312    1.634821
     16          6           0        1.011720   -0.859850    0.249181
     17          6           0        2.370100   -0.268160   -0.153399
     18          1           0        0.962191   -1.896440   -0.099979
     19          1           0        0.919420   -0.879100    1.340311
     20          6           0        3.524400   -1.190579    0.248621
     21          1           0        2.404020   -0.101020   -1.233849
     22          1           0        2.521069    0.704310    0.331431
     23          1           0        3.450730   -1.413359    1.327131
     24          1           0        3.417711   -2.148779   -0.274709
     25          7           0        4.812890   -0.602029   -0.144359
     26          1           0        4.990490    0.217681    0.434741
     27          1           0        5.559000   -1.255409    0.086471
 ---------------------------------------------------------------------

 SCF Done:  E(UB3LYP) =  -1424.19723923     A.U. after   20 cycles

 The electronic state is 2-A.
 Alpha  occ. eigenvalues --  -77.24601 -77.24230 -19.20617 -19.20615 -19.20320
 Alpha  occ. eigenvalues --  -19.20242 -19.19539 -19.13835 -19.13736 -14.50343
 Alpha  occ. eigenvalues --  -10.29757 -10.28635 -10.22868 -10.22713  -6.69485
 Alpha  occ. eigenvalues --   -6.69135  -4.85943  -4.85778  -4.85601  -4.85580
 Alpha  occ. eigenvalues --   -4.85432  -4.85256  -1.10368  -1.09567  -1.06435
 Alpha  occ. eigenvalues --   -1.04966  -1.04731  -1.02070  -0.98713  -0.98376
 Alpha  occ. eigenvalues --   -0.83952  -0.77706  -0.70380  -0.66767  -0.65218
 Alpha  occ. eigenvalues --   -0.61387  -0.59665  -0.58719  -0.56936  -0.56330
 Alpha  occ. eigenvalues --   -0.54909  -0.52142  -0.50238  -0.48232  -0.47806
 Alpha  occ. eigenvalues --   -0.46874  -0.44738  -0.44313  -0.43233  -0.42564
 Alpha  occ. eigenvalues --   -0.41330  -0.40862  -0.40271  -0.39520  -0.39012
 Alpha  occ. eigenvalues --   -0.38123  -0.38022  -0.37603  -0.35776  -0.35487
 Alpha  occ. eigenvalues --   -0.33540  -0.32066  -0.31805  -0.31544  -0.28724
 Alpha virt. eigenvalues --    0.01702   0.02522   0.03764   0.04136   0.04415
 Alpha virt. eigenvalues --    0.06635   0.08230   0.08509   0.09905   0.10158
 Alpha virt. eigenvalues --    0.11008   0.11450   0.11978   0.12777   0.13527

  Beta  occ. eigenvalues --  -77.24599 -77.24230 -19.20612 -19.20609 -19.20318
  Beta  occ. eigenvalues --  -19.20235 -19.19460 -19.13794 -19.13672 -14.48691
  Beta  occ. eigenvalues --  -10.29739 -10.28590 -10.22822 -10.22712  -6.69481
  Beta  occ. eigenvalues --   -6.69135  -4.85942  -4.85778  -4.85592  -4.85581
  Beta  occ. eigenvalues --   -4.85434  -4.85251  -1.10335  -1.09547  -1.06287
  Beta  occ. eigenvalues --   -1.04947  -1.04719  -0.98903  -0.98614  -0.98244
  Beta  occ. eigenvalues --   -0.83584  -0.77154  -0.69945  -0.66691  -0.64844
  Beta  occ. eigenvalues --   -0.61125  -0.58741  -0.58569  -0.56911  -0.54892
  Beta  occ. eigenvalues --   -0.54046  -0.51742  -0.49285  -0.48171  -0.47757
  Beta  occ. eigenvalues --   -0.45593  -0.44589  -0.43196  -0.42940  -0.42432
  Beta  occ. eigenvalues --   -0.41166  -0.40162  -0.39552  -0.38939  -0.38200
  Beta  occ. eigenvalues --   -0.37982  -0.37672  -0.35614  -0.35395  -0.33314
  Beta  occ. eigenvalues --   -0.31957  -0.31664  -0.31411  -0.28141
  Beta virt. eigenvalues --   -0.26033   0.01737   0.02687   0.04118   0.04251
  Beta virt. eigenvalues --    0.04564   0.06762   0.08493   0.08946   0.10110
  Beta virt. eigenvalues --    0.10210   0.11192   0.11879   0.12350   0.12903

 Mulliken charges and spin densities:
               1          2
     1  C   -0.136769   0.010609
     2  O   -0.518111   0.030396
     3  H    0.355287  -0.000797
     4  P    1.128575   0.003077
     5  P    1.120571  -0.000755
     6  O   -0.582578   0.001190
     7  H    0.382907   0.000200
     8  O   -0.572215   0.002758
     9  H    0.378348  -0.000065
    10  O   -0.577907   0.000649
    11  H    0.378945   0.000027
    12  O   -0.574332   0.002324
    13  H    0.373378  -0.000095
    14  O   -0.569067   0.025925
    15  O   -0.566067   0.016273
    16  C   -0.225314   0.001241
    17  C   -0.218074   0.022695
    18  H    0.155945   0.000150
    19  H    0.162432  -0.000097
    20  C   -0.137902   0.000954
    21  H    0.174656   0.006071
    22  H    0.144257  -0.000683
    23  H    0.249718   0.100547
    24  H    0.210361   0.011740
    25  N   -0.293827   0.778331
    26  H    0.376262  -0.006391
    27  H    0.380521  -0.006276
 Sum of Mulliken charges =   1.00000   1.00000

 Dipole moment (field-independent basis, Debye):
    X=             19.0495    Y=             -4.9156    Z=             -2.5854  Tot=             19.8426
 There are a total of      610620 grid points.
 ElSum from          density=      128.9999921556
 ElSum from atomic densities=      129.9999702799
 Hirshfeld populations at iteration   1 (CA, CB, DipXYZ):
               1          2          3          4          5
     1  C    2.996430   2.985638   0.039514  -0.018955  -0.072354
     2  O    4.111893   4.084531  -0.099735   0.036294   0.058155
     3  H    0.416647   0.415910  -0.137001   0.061385  -0.128366
     4  P    7.261250   7.255846  -0.008483  -0.100482  -0.099897
     5  P    7.264390   7.260971  -0.006209   0.072657  -0.108929

 Normal termination of Gaussian 16 at Fri Jan 22 02:42:37 2021.
