 Gaussian 16, Revision A.03,
 Gaussian 16:  EM64L-G16RevA.03 25-Dec-2016

 ----------------------------------------------------------------------
 #t B3LYP/6-31G(d,p) scrf=(solvent=water) # Gfinput IOP(6/7=3) Pop=hirs
 hfeld Density Test # Units(Ang,Deg)
 ----------------------------------------------------------------------
 ---------------------
 ris-1-3dp-opt-g09.log
 ---------------------
 Symbolic Z-matrix:
 Charge = -4 Multiplicity = 2

                         Standard orientation:
 ---------------------------------------------------------------------
 Center     Atomic      Atomic             Coordinates (Angstroms)
 Number     Number       Type             X           Y           Z
 ---------------------------------------------------------------------
      1          6           0        0.344010   -0.816849   -0.797320
      2          1           0        0.185020   -0.423799   -1.806090
      3          1           0        0.106520   -1.885238   -0.835020
      4          6           0       -0.727980   -0.184068    0.123390
      5          8           0       -0.450890   -0.549278    1.507390
      6          1           0       -1.380400   -0.804278    1.790390
      7          6           0        1.797320   -0.645089   -0.425680
      8          6           0        2.360880   -1.284389    0.687950
      9          6           0        2.675210    0.110021   -1.216880
     10          6           0        3.719140   -1.130390    0.959980
     11          1           0        1.727030   -1.881999    1.334070
     12          7           0        3.986340    0.266370   -0.980100
     13          1           0        2.282090    0.626111   -2.091480
     14          6           0        4.490710   -0.349050    0.100160
     15          1           0        4.177130   -1.612720    1.818510
     16          1           0        5.556050   -0.215320    0.281960
     17         15           0       -0.678879    1.685462    0.081090
     18         15           0       -2.439290   -0.995518   -0.237690
     19          8           0       -1.847049    2.328822    0.812270
     20          8           0        0.676631    1.887711    1.061070
     21          8           0       -0.320899    2.206432   -1.302820
     22          8           0       -2.931230   -1.144318    1.242510
     23          8           0       -2.139751   -2.352318   -0.907790
     24          8           0       -3.281370   -0.045807   -1.106170
     25          1           0        0.615460    1.132421    1.676050
 ---------------------------------------------------------------------

 SCF Done:  E(UB3LYP) =  -1536.13912470     A.U. after   20 cycles

 The electronic state is 2-A.
 Alpha  occ. eigenvalues --  -77.11081 -77.08323 -19.08877 -19.08443 -19.02725
 Alpha  occ. eigenvalues --  -19.02552 -19.01306 -19.00492 -19.00305 -14.21968
 Alpha  occ. eigenvalues --  -10.16055 -10.13770 -10.12792 -10.12585 -10.11700
 Alpha  occ. eigenvalues --  -10.11498 -10.08919  -6.55917  -6.53046  -4.72428
 Alpha  occ. eigenvalues --   -4.72139  -4.72075  -4.69417  -4.69349  -4.69317
 Alpha  occ. eigenvalues --   -0.96843  -0.94453  -0.89537  -0.88761  -0.85013
 Alpha  occ. eigenvalues --   -0.84746  -0.82495  -0.81935  -0.73231  -0.69707
 Alpha  occ. eigenvalues --   -0.65112  -0.56604  -0.54887  -0.51922  -0.48000
 Alpha  occ. eigenvalues --   -0.46025  -0.43987  -0.42951  -0.39698  -0.39231
 Alpha  occ. eigenvalues --   -0.38236  -0.36695  -0.35069  -0.34102  -0.33045
 Alpha  occ. eigenvalues --   -0.32080  -0.31787  -0.31510  -0.30957  -0.30079
 Alpha  occ. eigenvalues --   -0.29223  -0.28500  -0.27387  -0.26669  -0.25090
 Alpha  occ. eigenvalues --   -0.23970  -0.22228  -0.21980  -0.21694  -0.20791
 Alpha  occ. eigenvalues --   -0.20306  -0.19141  -0.19000  -0.18352  -0.17767
 Alpha  occ. eigenvalues --   -0.17533  -0.16757  -0.15412  -0.00914
 Alpha virt. eigenvalues --    0.06292   0.13308   0.14969   0.15677   0.16681
 Alpha virt. eigenvalues --    0.17844   0.18267   0.19729   0.20259   0.21274
 Alpha virt. eigenvalues --    0.22374   0.22913   0.23622   0.24011   0.25818

  Beta  occ. eigenvalues --  -77.11081 -77.08322 -19.08873 -19.08436 -19.02721
  Beta  occ. eigenvalues --  -19.02552 -19.01305 -19.00491 -19.00304 -14.21225
  Beta  occ. eigenvalues --  -10.16047 -10.13664 -10.12621 -10.12589 -10.11700
  Beta  occ. eigenvalues --  -10.11515 -10.08298  -6.55917  -6.53046  -4.72428
  Beta  occ. eigenvalues --   -4.72139  -4.72075  -4.69417  -4.69349  -4.69316
  Beta  occ. eigenvalues --   -0.96836  -0.94445  -0.89534  -0.88757  -0.84753
  Beta  occ. eigenvalues --   -0.83940  -0.82493  -0.81932  -0.72676  -0.69079
  Beta  occ. eigenvalues --   -0.64740  -0.56436  -0.53963  -0.51634  -0.47965
  Beta  occ. eigenvalues --   -0.45976  -0.43688  -0.42871  -0.39421  -0.39053
  Beta  occ. eigenvalues --   -0.38128  -0.36516  -0.34998  -0.34017  -0.32857
  Beta  occ. eigenvalues --   -0.31736  -0.31396  -0.30884  -0.30302  -0.29773
  Beta  occ. eigenvalues --   -0.29150  -0.28363  -0.27251  -0.26592  -0.25049
  Beta  occ. eigenvalues --   -0.23925  -0.22202  -0.21967  -0.20722  -0.20312
  Beta  occ. eigenvalues --   -0.19046  -0.18969  -0.18342  -0.18197  -0.17069
  Beta  occ. eigenvalues --   -0.16571  -0.16446  -0.15410
  Beta virt. eigenvalues --    0.06744   0.07705   0.13376   0.14999   0.15778
  Beta virt. eigenvalues --    0.16867   0.17916   0.18305   0.20394   0.21296
  Beta virt. eigenvalues --    0.21596   0.22525   0.23190   0.23934   0.24484

 Mulliken charges and spin densities:
               1          2
     1  C   -0.228515   0.000708
     2  H    0.048682  -0.000567
     3  H    0.057969   0.006880
     4  C   -0.154939   0.001329
     5  O   -0.638523   0.000451
     6  H    0.299516   0.000972
     7  C    0.128194  -0.019416
     8  C   -0.227566   0.484289
     9  C   -0.057832   0.131036
    10  C   -0.147719  -0.003052
    11  H   -0.010817  -0.026868
    12  N   -0.610939   0.350461
    13  H   -0.006734  -0.009335
    14  C   -0.011537   0.084449
    15  H    0.003561  -0.002159
    16  H    0.000712  -0.006972
    17  P    0.920303   0.005008
    18  P    0.810014   0.000525
    19  O   -0.730362  -0.000071
    20  O   -0.682196   0.000745
    21  O   -0.737242   0.000414
    22  O   -0.802492   0.000122
    23  O   -0.765006   0.000182
    24  O   -0.769642   0.000130
    25  H    0.313111   0.000736
 Sum of Mulliken charges =  -4.00000   1.00000

 Dipole moment (field-independent basis, Debye):
    X=             10.1983    Y=             -2.6711    Z=              4.5403  Tot=             11.4784
 There are a total of      565350 grid points.
 ElSum from          density=      147.0000152623
 ElSum from atomic densities=      143.0000331599
 Hirshfeld populations at iteration   1 (CA, CB, DipXYZ):
               1          2          3          4          5
     1  C    3.043572   3.036216   0.021940   0.028884   0.032397
     2  H    0.498600   0.497214  -0.013987   0.026947  -0.108113
     3  H    0.505764   0.501749   0.011935  -0.095552  -0.000791
     4  C    3.013512   3.011026   0.064361  -0.041890   0.057486
     5  O    4.138969   4.136228  -0.094026   0.031328  -0.104557

 Normal termination of Gaussian 16 at Mon Feb  8 14:56:33 2021.
