 Gaussian 16, Revision A.03,
 Gaussian 16:  EM64L-G16RevA.03 25-Dec-2016

 ----------------------------------------------------------------------
 #t B3LYP/6-31G(d,p) scrf=(solvent=water) # Gfinput IOP(6/7=3) Pop=hirs
 hfeld Density Test # Units(Ang,Deg)
 ----------------------------------------------------------------------
 ---------------------
 ris-1-3dp-opt-g09.log
 ---------------------
 Symbolic Z-matrix:
 Charge = -3 Multiplicity = 1

                         Standard orientation:
 ---------------------------------------------------------------------
 Center     Atomic      Atomic             Coordinates (Angstroms)
 Number     Number       Type             X           Y           Z
 ---------------------------------------------------------------------
      1          6           0        0.344010   -0.816849   -0.797320
      2          1           0        0.185020   -0.423799   -1.806090
      3          1           0        0.106520   -1.885238   -0.835020
      4          6           0       -0.727980   -0.184068    0.123390
      5          8           0       -0.450890   -0.549278    1.507390
      6          1           0       -1.380400   -0.804278    1.790390
      7          6           0        1.797320   -0.645089   -0.425680
      8          6           0        2.360880   -1.284389    0.687950
      9          6           0        2.675210    0.110021   -1.216880
     10          6           0        3.719140   -1.130390    0.959980
     11          1           0        1.727030   -1.881999    1.334070
     12          7           0        3.986340    0.266370   -0.980100
     13          1           0        2.282090    0.626111   -2.091480
     14          6           0        4.490710   -0.349050    0.100160
     15          1           0        4.177130   -1.612720    1.818510
     16          1           0        5.556050   -0.215320    0.281960
     17         15           0       -0.678879    1.685462    0.081090
     18         15           0       -2.439290   -0.995518   -0.237690
     19          8           0       -1.847049    2.328822    0.812270
     20          8           0        0.676631    1.887711    1.061070
     21          8           0       -0.320899    2.206432   -1.302820
     22          8           0       -2.931230   -1.144318    1.242510
     23          8           0       -2.139751   -2.352318   -0.907790
     24          8           0       -3.281370   -0.045807   -1.106170
     25          1           0        0.615460    1.132421    1.676050
 ---------------------------------------------------------------------

 SCF Done:  E(RB3LYP) =  -1536.12933089     A.U. after   13 cycles

 The electronic state is 1-A.
 Alpha  occ. eigenvalues --  -77.12120 -77.09209 -19.10079 -19.09975 -19.03689
 Alpha  occ. eigenvalues --  -19.03310 -19.02045 -19.01113 -19.01059 -14.32018
 Alpha  occ. eigenvalues --  -10.20845 -10.20365 -10.18575 -10.18464 -10.18438
 Alpha  occ. eigenvalues --  -10.17817 -10.15539  -6.56958  -6.53922  -4.73468
 Alpha  occ. eigenvalues --   -4.73178  -4.73121  -4.70309  -4.70221  -4.70184
 Alpha  occ. eigenvalues --   -0.98138  -0.95765  -0.92511  -0.90301  -0.89672
 Alpha  occ. eigenvalues --   -0.85584  -0.83203  -0.82614  -0.79375  -0.75727
 Alpha  occ. eigenvalues --   -0.69448  -0.61215  -0.60929  -0.56026  -0.50324
 Alpha  occ. eigenvalues --   -0.49272  -0.47480  -0.46885  -0.43782  -0.43599
 Alpha  occ. eigenvalues --   -0.40262  -0.39674  -0.38947  -0.38190  -0.37204
 Alpha  occ. eigenvalues --   -0.36205  -0.34812  -0.33823  -0.33029  -0.31689
 Alpha  occ. eigenvalues --   -0.30926  -0.30031  -0.29374  -0.28007  -0.26847
 Alpha  occ. eigenvalues --   -0.26364  -0.24998  -0.24616  -0.23775  -0.22800
 Alpha  occ. eigenvalues --   -0.22594  -0.21369  -0.20774  -0.19823  -0.19653
 Alpha  occ. eigenvalues --   -0.18812  -0.17944  -0.16033
 Alpha virt. eigenvalues --   -0.01017   0.00613   0.11362   0.12902   0.14058
 Alpha virt. eigenvalues --    0.14572   0.15884   0.16542   0.17143   0.17515
 Alpha virt. eigenvalues --    0.19475   0.19870   0.21266   0.21436   0.22766

 Mulliken charges:
               1
     1  C   -0.241870
     2  H    0.084992
     3  H    0.101185
     4  C   -0.159245
     5  O   -0.640063
     6  H    0.308815
     7  C    0.117270
     8  C   -0.092987
     9  C    0.041089
    10  C   -0.113501
    11  H    0.101287
    12  N   -0.485242
    13  H    0.090078
    14  C    0.067215
    15  H    0.097864
    16  H    0.096292
    17  P    0.933230
    18  P    0.826540
    19  O   -0.721091
    20  O   -0.680185
    21  O   -0.730122
    22  O   -0.796011
    23  O   -0.760125
    24  O   -0.762520
    25  H    0.317102
 Sum of Mulliken charges =  -3.00000

 Dipole moment (field-independent basis, Debye):
    X=             23.7512    Y=             -5.2712    Z=              4.1789  Tot=             24.6854
 There are a total of      565350 grid points.
 ElSum from          density=      146.0000176857
 ElSum from atomic densities=      143.0000331599
 Hirshfeld populations at iteration   1 (CA, CB, DipXYZ):
               1          2          3          4          5
     1  C    3.034192   3.034192   0.033768   0.022368   0.020287
     2  H    0.489590   0.489590  -0.015143   0.028097  -0.121625
     3  H    0.494341   0.494341   0.013199  -0.109745  -0.002016
     4  C    3.011295   3.011295   0.062330  -0.045227   0.053523
     5  O    4.135345   4.135345  -0.095336   0.028696  -0.094828

 Normal termination of Gaussian 16 at Mon Feb  8 15:03:34 2021.
