 Gaussian 16, Revision A.03,
 Gaussian 16:  EM64L-G16RevA.03 25-Dec-2016

 ----------------------------------------------------------------------
 #t B3LYP/6-31G(d,p) scrf=(solvent=water) # Gfinput IOP(6/7=3) Pop=hirs
 hfeld Density Test # Units(Ang,Deg)
 ----------------------------------------------------------------------
 ---------------------
 ris-1-3dp-opt-g09.log
 ---------------------
 Symbolic Z-matrix:
 Charge = -2 Multiplicity = 2

                         Standard orientation:
 ---------------------------------------------------------------------
 Center     Atomic      Atomic             Coordinates (Angstroms)
 Number     Number       Type             X           Y           Z
 ---------------------------------------------------------------------
      1          6           0        0.344010   -0.816849   -0.797320
      2          1           0        0.185020   -0.423799   -1.806090
      3          1           0        0.106520   -1.885238   -0.835020
      4          6           0       -0.727980   -0.184068    0.123390
      5          8           0       -0.450890   -0.549278    1.507390
      6          1           0       -1.380400   -0.804278    1.790390
      7          6           0        1.797320   -0.645089   -0.425680
      8          6           0        2.360880   -1.284389    0.687950
      9          6           0        2.675210    0.110021   -1.216880
     10          6           0        3.719140   -1.130390    0.959980
     11          1           0        1.727030   -1.881999    1.334070
     12          7           0        3.986340    0.266370   -0.980100
     13          1           0        2.282090    0.626111   -2.091480
     14          6           0        4.490710   -0.349050    0.100160
     15          1           0        4.177130   -1.612720    1.818510
     16          1           0        5.556050   -0.215320    0.281960
     17         15           0       -0.678879    1.685462    0.081090
     18         15           0       -2.439290   -0.995518   -0.237690
     19          8           0       -1.847049    2.328822    0.812270
     20          8           0        0.676631    1.887711    1.061070
     21          8           0       -0.320899    2.206432   -1.302820
     22          8           0       -2.931230   -1.144318    1.242510
     23          8           0       -2.139751   -2.352318   -0.907790
     24          8           0       -3.281370   -0.045807   -1.106170
     25          1           0        0.615460    1.132421    1.676050
 ---------------------------------------------------------------------

 SCF Done:  E(UB3LYP) =  -1535.96368192     A.U. after   28 cycles

 The electronic state is 2-A.
 Alpha  occ. eigenvalues --  -77.17301 -77.14172 -19.13531 -19.13254 -19.13216
 Alpha  occ. eigenvalues --  -19.13116 -19.11693 -19.05373 -19.05013 -14.32578
 Alpha  occ. eigenvalues --  -10.21940 -10.21441 -10.21113 -10.19471 -10.19330
 Alpha  occ. eigenvalues --  -10.19008 -10.17715  -6.62153  -6.59004  -4.78486
 Alpha  occ. eigenvalues --   -4.78459  -4.78410  -4.75496  -4.75239  -4.75174
 Alpha  occ. eigenvalues --   -1.02254  -0.99869  -0.97934  -0.94031  -0.93698
 Alpha  occ. eigenvalues --   -0.93117  -0.91343  -0.87216  -0.80425  -0.76646
 Alpha  occ. eigenvalues --   -0.71516  -0.62840  -0.61910  -0.58054  -0.53136
 Alpha  occ. eigenvalues --   -0.51127  -0.50791  -0.48196  -0.47194  -0.45765
 Alpha  occ. eigenvalues --   -0.44479  -0.42223  -0.40914  -0.40588  -0.40312
 Alpha  occ. eigenvalues --   -0.39122  -0.38622  -0.37747  -0.36465  -0.35775
 Alpha  occ. eigenvalues --   -0.34780  -0.34616  -0.33680  -0.33502  -0.32779
 Alpha  occ. eigenvalues --   -0.29782  -0.29429  -0.28746  -0.28524  -0.28303
 Alpha  occ. eigenvalues --   -0.27361  -0.26764  -0.26008  -0.24947  -0.24245
 Alpha  occ. eigenvalues --   -0.22892  -0.21803  -0.21260
 Alpha virt. eigenvalues --   -0.01676  -0.00155   0.08979   0.10518   0.11966
 Alpha virt. eigenvalues --    0.12663   0.13076   0.13822   0.15324   0.16480
 Alpha virt. eigenvalues --    0.17029   0.17265   0.18542   0.19203   0.19744

  Beta  occ. eigenvalues --  -77.17331 -77.14171 -19.13493 -19.12293 -19.12290
  Beta  occ. eigenvalues --  -19.12271 -19.11684 -19.05342 -19.05001 -14.32577
  Beta  occ. eigenvalues --  -10.21923 -10.21441 -10.21113 -10.19470 -10.19330
  Beta  occ. eigenvalues --  -10.19008 -10.17718  -6.62192  -6.59003  -4.78544
  Beta  occ. eigenvalues --   -4.78517  -4.78439  -4.75496  -4.75236  -4.75174
  Beta  occ. eigenvalues --   -1.01492  -0.98980  -0.97624  -0.93121  -0.91559
  Beta  occ. eigenvalues --   -0.91476  -0.91253  -0.87158  -0.80419  -0.76640
  Beta  occ. eigenvalues --   -0.71474  -0.62771  -0.61910  -0.58005  -0.52681
  Beta  occ. eigenvalues --   -0.51090  -0.50703  -0.48155  -0.46773  -0.45637
  Beta  occ. eigenvalues --   -0.44397  -0.41894  -0.40713  -0.39150  -0.39102
  Beta  occ. eigenvalues --   -0.38975  -0.38527  -0.37604  -0.36308  -0.35546
  Beta  occ. eigenvalues --   -0.34607  -0.34489  -0.32988  -0.29859  -0.29597
  Beta  occ. eigenvalues --   -0.28870  -0.28285  -0.27568  -0.27293  -0.27259
  Beta  occ. eigenvalues --   -0.26300  -0.25871  -0.24902  -0.24115  -0.22780
  Beta  occ. eigenvalues --   -0.21606  -0.21193
  Beta virt. eigenvalues --   -0.17066  -0.01674  -0.00150   0.09217   0.10861
  Beta virt. eigenvalues --    0.12051   0.12788   0.13474   0.13877   0.15350
  Beta virt. eigenvalues --    0.16619   0.17348   0.17499   0.18666   0.19467

 Mulliken charges and spin densities:
               1          2
     1  C   -0.252719  -0.001417
     2  H    0.109888   0.000270
     3  H    0.123290   0.001097
     4  C   -0.176927   0.013492
     5  O   -0.610240   0.014728
     6  H    0.341766  -0.002633
     7  C    0.111924   0.000677
     8  C   -0.089780  -0.000207
     9  C    0.048632  -0.000222
    10  C   -0.111073   0.000098
    11  H    0.109042   0.000012
    12  N   -0.481932   0.000125
    13  H    0.097167  -0.000011
    14  C    0.073301  -0.000199
    15  H    0.104053   0.000002
    16  H    0.102685   0.000010
    17  P    0.964849   0.000258
    18  P    0.971173  -0.154846
    19  O   -0.702722   0.005354
    20  O   -0.666583   0.003475
    21  O   -0.706722   0.012443
    22  O   -0.608236   0.331785
    23  O   -0.538475   0.391740
    24  O   -0.538631   0.384229
    25  H    0.326269  -0.000259
 Sum of Mulliken charges =  -2.00000   1.00000

 Dipole moment (field-independent basis, Debye):
    X=             13.1568    Y=             -9.5436    Z=              3.1546  Tot=             16.5570
 There are a total of      565350 grid points.
 ElSum from          density=      145.0000155331
 ElSum from atomic densities=      143.0000331599
 Hirshfeld populations at iteration   1 (CA, CB, DipXYZ):
               1          2          3          4          5
     1  C    3.030458   3.031210   0.034254   0.017386   0.015616
     2  H    0.484567   0.484918  -0.016509   0.027867  -0.130305
     3  H    0.489595   0.488877   0.005868  -0.122958  -0.004485
     4  C    3.008477   3.001538   0.055030  -0.047204   0.050510
     5  O    4.126364   4.113454  -0.084488   0.026357  -0.075132

 Normal termination of Gaussian 16 at Mon Feb  8 15:00:44 2021.
