 Gaussian 16, Revision A.03,
 Gaussian 16:  ES64L-G16RevA.03 25-Dec-2016

 ----------------------------------------------------------------------
 #t B3LYP/LANL2DZ # SCRF=(Solvent=Water) # Gfinput IOP(6/7=3) Pop=hirsh
 feld Density Test # Units(Ang,Deg)
 ----------------------------------------------------------------------
 ----------
 3-tio2.pdb
 ----------
 Symbolic Z-matrix:
 Charge =  1 Multiplicity = 2

                         Standard orientation:
 ---------------------------------------------------------------------
 Center     Atomic      Atomic             Coordinates (Angstroms)
 Number     Number       Type             X           Y           Z
 ---------------------------------------------------------------------
      1         22           0        2.726994    0.401258   -0.047705
      2         22           0        0.005248   -0.002642    0.001996
      3         22           0       -2.716498   -0.406541    0.051697
      4          8           0       -1.597126    1.046684   -0.039274
      5          8           0       -1.188846   -1.438791   -0.090267
      6          8           0        1.230515    1.480849    0.098021
      7          8           0        1.504924   -1.045720    0.031827
      8          8           0        3.772819   -0.850755    0.045392
      9          8           0       -3.765581    0.829526   -0.062169
 ---------------------------------------------------------------------

 SCF Done:  E(UB3LYP) =  -625.801184749     A.U. after   25 cycles

 The electronic state is 2-A.
 Alpha  occ. eigenvalues --  -19.20173 -19.17552 -19.17502 -19.14211 -19.13475
 Alpha  occ. eigenvalues --  -19.13253  -2.49868  -2.49127  -2.47418  -1.63358
 Alpha  occ. eigenvalues --   -1.62154  -1.61352  -1.61205  -1.61192  -1.60546
 Alpha  occ. eigenvalues --   -1.59991  -1.59460  -1.59126  -0.98720  -0.95241
 Alpha  occ. eigenvalues --   -0.94768  -0.92305  -0.90649  -0.87672  -0.48046
 Alpha  occ. eigenvalues --   -0.43166  -0.42748  -0.42440  -0.40536  -0.40396
 Alpha  occ. eigenvalues --   -0.38902  -0.38079  -0.37557  -0.37352  -0.36271
 Alpha  occ. eigenvalues --   -0.34472  -0.33644  -0.32056  -0.31760  -0.30577
 Alpha  occ. eigenvalues --   -0.29862  -0.29272
 Alpha virt. eigenvalues --   -0.13980  -0.13173  -0.12224  -0.11666  -0.11546
 Alpha virt. eigenvalues --   -0.11256  -0.09794  -0.08725  -0.06749  -0.06486
 Alpha virt. eigenvalues --   -0.04960  -0.04844  -0.03456  -0.03022   0.00833

  Beta  occ. eigenvalues --  -19.18878 -19.16882 -19.16335 -19.14160 -19.13171
  Beta  occ. eigenvalues --  -19.13106  -2.50307  -2.49553  -2.47624  -1.63731
  Beta  occ. eigenvalues --   -1.62595  -1.61945  -1.61656  -1.61527  -1.60966
  Beta  occ. eigenvalues --   -1.60220  -1.59691  -1.59309  -0.95900  -0.93572
  Beta  occ. eigenvalues --   -0.93208  -0.91409  -0.88885  -0.86859  -0.43417
  Beta  occ. eigenvalues --   -0.42493  -0.41758  -0.40719  -0.39374  -0.38659
  Beta  occ. eigenvalues --   -0.38344  -0.37188  -0.36738  -0.36572  -0.35933
  Beta  occ. eigenvalues --   -0.32998  -0.30931  -0.30690  -0.30093  -0.28962
  Beta  occ. eigenvalues --   -0.28474
  Beta virt. eigenvalues --   -0.21714  -0.14295  -0.13478  -0.12447  -0.11818
  Beta virt. eigenvalues --   -0.11663  -0.11425  -0.09688  -0.08656  -0.06691
  Beta virt. eigenvalues --   -0.06080  -0.04994  -0.04772  -0.03089  -0.02856

 Mulliken charges and spin densities:
               1          2
     1  Ti   1.452775  -0.061700
     2  Ti   1.526699  -0.132323
     3  Ti   1.524591  -0.127162
     4  O   -0.579257   0.460950
     5  O   -0.728527   0.020210
     6  O   -0.750870   0.029638
     7  O   -0.610432   0.245916
     8  O   -0.458012   0.134613
     9  O   -0.376968   0.429859
 Sum of Mulliken charges =   1.00000   1.00000

 Dipole moment (field-independent basis, Debye):
    X=             -3.1769    Y=              0.1743    Z=              0.0441  Tot=              3.1819
 StAtR1:  DoIntr=F IAtCor=3 NETot=      84 Failed=F Sum=  3.00D+01 SumC=  0.00D+00
 There are a total of      235478 grid points.
 ElSum from          density=       83.0000006096
 ElSum from atomic densities=      114.0000053978

 Hirshfeld populations at iteration   1 (CX, CA, CB, DipXYZ):
               1          2          3          4          5          6
     1  Ti   0.000019   5.419508   5.457361   0.542063   0.767164  -0.188719
     2  Ti   0.000003   5.501144   5.579952  -0.039019   0.014779   0.001103
     3  Ti   0.000017   5.373240   5.442527  -0.621110  -0.773983   0.195165

 Normal termination of Gaussian 16 at Mon May 31 13:20:23 2021.
