 Gaussian 16, Revision A.03,
 Gaussian 16:  ES64L-G16RevA.03 25-Dec-2016

 ----------------------------------------------------------------------
 #t B3LYP/LANL2DZ # SCRF=(Solvent=Water) # Gfinput IOP(6/7=3) Pop=hirsh
 feld Density Test # Units(Ang,Deg)
 ----------------------------------------------------------------------
 ----------
 3-tio2.pdb
 ----------
 Symbolic Z-matrix:
 Charge = -1 Multiplicity = 2

                         Standard orientation:
 ---------------------------------------------------------------------
 Center     Atomic      Atomic             Coordinates (Angstroms)
 Number     Number       Type             X           Y           Z
 ---------------------------------------------------------------------
      1         22           0        2.726994    0.401258   -0.047705
      2         22           0        0.005248   -0.002642    0.001996
      3         22           0       -2.716498   -0.406541    0.051697
      4          8           0       -1.597126    1.046684   -0.039274
      5          8           0       -1.188846   -1.438791   -0.090267
      6          8           0        1.230515    1.480849    0.098021
      7          8           0        1.504924   -1.045720    0.031827
      8          8           0        3.772819   -0.850755    0.045392
      9          8           0       -3.765581    0.829526   -0.062169
 ---------------------------------------------------------------------

 SCF Done:  E(UB3LYP) =  -626.154980735     A.U. after   27 cycles

 The electronic state is 2-A.
 Alpha  occ. eigenvalues --  -19.07211 -19.07109 -19.06573 -19.06434 -19.06418
 Alpha  occ. eigenvalues --  -19.06243  -2.41139  -2.40045  -2.37551  -1.54055
 Alpha  occ. eigenvalues --   -1.53415  -1.53185  -1.53144  -1.52452  -1.51998
 Alpha  occ. eigenvalues --   -1.50179  -1.49528  -1.49455  -0.87317  -0.85649
 Alpha  occ. eigenvalues --   -0.85442  -0.83823  -0.81701  -0.80868  -0.36218
 Alpha  occ. eigenvalues --   -0.34518  -0.34238  -0.33763  -0.32665  -0.31197
 Alpha  occ. eigenvalues --   -0.30850  -0.30434  -0.29555  -0.29463  -0.29203
 Alpha  occ. eigenvalues --   -0.26006  -0.24657  -0.24373  -0.23702  -0.23535
 Alpha  occ. eigenvalues --   -0.23069  -0.19930  -0.15092
 Alpha virt. eigenvalues --   -0.06946  -0.06025  -0.05852  -0.04486  -0.01476
 Alpha virt. eigenvalues --   -0.01054  -0.00541   0.00416   0.00836   0.01153
 Alpha virt. eigenvalues --    0.01301   0.01414   0.01757   0.02239   0.02430

  Beta  occ. eigenvalues --  -19.07279 -19.07101 -19.06629 -19.06474 -19.06425
  Beta  occ. eigenvalues --  -19.06303  -2.40989  -2.39947  -2.34805  -1.53944
  Beta  occ. eigenvalues --   -1.53208  -1.53083  -1.52926  -1.52280  -1.51860
  Beta  occ. eigenvalues --   -1.48521  -1.47052  -1.45082  -0.87382  -0.85753
  Beta  occ. eigenvalues --   -0.85490  -0.83925  -0.81700  -0.80887  -0.36018
  Beta  occ. eigenvalues --   -0.34351  -0.34214  -0.33715  -0.32626  -0.31179
  Beta  occ. eigenvalues --   -0.30781  -0.30451  -0.29581  -0.29373  -0.29229
  Beta  occ. eigenvalues --   -0.25999  -0.24745  -0.24012  -0.23845  -0.23590
  Beta  occ. eigenvalues --   -0.23106  -0.19999
  Beta virt. eigenvalues --   -0.07071  -0.06150  -0.05763  -0.04424  -0.02131
  Beta virt. eigenvalues --   -0.01182  -0.00593  -0.00442   0.00508   0.01131
  Beta virt. eigenvalues --    0.01335   0.01529   0.01693   0.02219   0.02376

 Mulliken charges and spin densities:
               1          2
     1  Ti   1.188249   0.039306
     2  Ti   0.901217   1.018672
     3  Ti   1.146877   0.025162
     4  O   -0.741032  -0.022815
     5  O   -0.823246  -0.021778
     6  O   -0.829374  -0.022487
     7  O   -0.736677  -0.025257
     8  O   -0.556135   0.004333
     9  O   -0.549879   0.004864
 Sum of Mulliken charges =  -1.00000   1.00000

 Dipole moment (field-independent basis, Debye):
    X=              0.6596    Y=             -0.2923    Z=              0.1040  Tot=              0.7289
 StAtR1:  DoIntr=F IAtCor=3 NETot=      84 Failed=F Sum=  3.00D+01 SumC=  0.00D+00
 There are a total of      235478 grid points.
 ElSum from          density=       85.0000001924
 ElSum from atomic densities=      114.0000053978

 Hirshfeld populations at iteration   1 (CX, CA, CB, DipXYZ):
               1          2          3          4          5          6
     1  Ti   0.000034   5.599269   5.523438   0.535242   0.762222  -0.186309
     2  Ti   0.000004   6.229183   5.370013  -0.005668   0.003556   0.002572
     3  Ti   0.000033   5.602581   5.542254  -0.481185  -0.798542   0.201330

 Normal termination of Gaussian 16 at Mon May 31 13:19:39 2021.
