 Gaussian 16, Revision A.03,
 Gaussian 16:  ES64L-G16RevA.03 25-Dec-2016

 ----------------------------------------------------------------------
 #t B3LYP/LANL2DZ # SCRF=(Solvent=Water) # Gfinput IOP(6/7=3) Pop=hirsh
 feld Density Test # Units(Ang,Deg)
 ----------------------------------------------------------------------
 ----------
 3-tio2.pdb
 ----------
 Symbolic Z-matrix:
 Charge =  0 Multiplicity = 1

                         Standard orientation:
 ---------------------------------------------------------------------
 Center     Atomic      Atomic             Coordinates (Angstroms)
 Number     Number       Type             X           Y           Z
 ---------------------------------------------------------------------
      1         22           0        2.726994    0.401258   -0.047705
      2         22           0        0.005248   -0.002642    0.001996
      3         22           0       -2.716498   -0.406541    0.051697
      4          8           0       -1.597126    1.046684   -0.039274
      5          8           0       -1.188846   -1.438791   -0.090267
      6          8           0        1.230515    1.480849    0.098021
      7          8           0        1.504924   -1.045720    0.031827
      8          8           0        3.772819   -0.850755    0.045392
      9          8           0       -3.765581    0.829526   -0.062169
 ---------------------------------------------------------------------

 SCF Done:  E(RB3LYP) =  -626.023403626     A.U. after   19 cycles

 The electronic state is 1-A.
 Alpha  occ. eigenvalues --  -19.11276 -19.10106 -19.10078 -19.09950 -19.09609
 Alpha  occ. eigenvalues --  -19.08768  -2.45801  -2.44058  -2.42746  -1.58828
 Alpha  occ. eigenvalues --   -1.57671  -1.57180  -1.56674  -1.56073  -1.55948
 Alpha  occ. eigenvalues --   -1.55687  -1.54894  -1.54587  -0.90955  -0.89444
 Alpha  occ. eigenvalues --   -0.88621  -0.87477  -0.84193  -0.83476  -0.39615
 Alpha  occ. eigenvalues --   -0.38123  -0.37810  -0.36784  -0.35372  -0.34692
 Alpha  occ. eigenvalues --   -0.34031  -0.32819  -0.32492  -0.32451  -0.32131
 Alpha  occ. eigenvalues --   -0.28975  -0.27772  -0.27031  -0.26515  -0.26094
 Alpha  occ. eigenvalues --   -0.25680  -0.22805
 Alpha virt. eigenvalues --   -0.10973  -0.09432  -0.08662  -0.07954  -0.07506
 Alpha virt. eigenvalues --   -0.07176  -0.05250  -0.04544  -0.02176  -0.01741
 Alpha virt. eigenvalues --   -0.01251  -0.01091  -0.00864  -0.00314   0.01155

 Mulliken charges:
               1
     1  Ti   1.313354
     2  Ti   1.426041
     3  Ti   1.266323
     4  O   -0.713607
     5  O   -0.778514
     6  O   -0.791978
     7  O   -0.699303
     8  O   -0.512959
     9  O   -0.509358
 Sum of Mulliken charges =  -0.00000

 Dipole moment (field-independent basis, Debye):
    X=              0.8822    Y=             -0.4355    Z=              0.0947  Tot=              0.9884
 StAtR1:  DoIntr=F IAtCor=3 NETot=      84 Failed=F Sum=  3.00D+01 SumC=  0.00D+00
 There are a total of      235478 grid points.
 ElSum from          density=       84.0000004047
 ElSum from atomic densities=      114.0000053978

 Hirshfeld populations at iteration   1 (CX, CA, CB, DipXYZ):
               1          2          3          4          5          6
     1  Ti   0.000026   5.492665   5.492665   0.478449   0.775409  -0.198295
     2  Ti   0.000004   5.586842   5.586842   0.002068  -0.005765   0.002003
     3  Ti   0.000025   5.508101   5.508101  -0.428703  -0.821779   0.210593

 Normal termination of Gaussian 16 at Mon May 31 13:18:05 2021.
