 Gaussian 16, Revision A.03,
 Gaussian 16:  EM64L-G16RevA.03 25-Dec-2016

 ----------------------------------------------------------------------
 #t B3LYP/6-31G(d,p) scrf=(solvent=water) # Gfinput IOP(6/7=3) Pop=hirs
 hfeld Density Test # Units(Ang,Deg)
 ----------------------------------------------------------------------
 ----------------------
 ale-1p-2dp-opt-g09.log
 ----------------------
 Symbolic Z-matrix:
 Charge = -2 Multiplicity = 2

                         Standard orientation:
 ---------------------------------------------------------------------
 Center     Atomic      Atomic             Coordinates (Angstroms)
 Number     Number       Type             X           Y           Z
 ---------------------------------------------------------------------
      1          6           0        3.423991   -1.082659   -0.432039
      2          6           0        2.285451   -0.290339    0.194461
      3          1           0        3.366802   -2.147759   -0.201109
      4          1           0        3.466791   -0.959779   -1.515669
      5          6           0        0.929591   -0.786130   -0.330849
      6          1           0        2.306091   -0.407789    1.283321
      7          1           0        2.414320    0.773541   -0.018469
      8          1           0        0.874261   -0.634010   -1.413999
      9          1           0        0.863962   -1.863370   -0.145869
     10          7           0        4.762421   -0.609218    0.096461
     11          1           0        5.540371   -1.122167   -0.327099
     12          1           0        4.908400    0.385872   -0.097339
     13          1           0        4.826901   -0.735348    1.110661
     14          6           0       -0.299610   -0.118321    0.312891
     15          8           0       -0.175640   -0.208471    1.747171
     16          1           0       -1.097829   -0.377672    2.034751
     17         15           0       -1.888229   -1.062832   -0.097739
     18         15           0       -0.492971    1.685649   -0.189269
     19          8           0       -2.684899   -1.012173    1.197681
     20          8           0       -1.800351    2.215628    0.357521
     21          8           0       -2.483199   -0.669653   -1.429849
     22          8           0       -0.116611    1.876029   -1.647799
     23          8           0        0.735449    2.412919    0.702511
     24          1           0        1.327668    2.813570    0.050481
     25          8           0       -1.380118   -2.651422   -0.231199
     26          1           0       -1.210268   -2.840972   -1.164849
 ---------------------------------------------------------------------

 SCF Done:  E(UB3LYP) =  -1423.97890745     A.U. after   19 cycles

 The electronic state is 2-A.
 Alpha  occ. eigenvalues --  -77.14904 -77.13825 -19.13431 -19.12216 -19.11720
 Alpha  occ. eigenvalues --  -19.06391 -19.06161 -19.05083 -19.04907 -14.38218
 Alpha  occ. eigenvalues --  -10.21817 -10.20618 -10.16998 -10.16529  -6.59782
 Alpha  occ. eigenvalues --   -6.58666  -4.76277  -4.75988  -4.75966  -4.75178
 Alpha  occ. eigenvalues --   -4.74875  -4.74839  -1.00819  -0.99501  -0.98244
 Alpha  occ. eigenvalues --   -0.95213  -0.92398  -0.91251  -0.88754  -0.87423
 Alpha  occ. eigenvalues --   -0.77771  -0.70247  -0.62411  -0.57642  -0.54676
 Alpha  occ. eigenvalues --   -0.53641  -0.51956  -0.51091  -0.48753  -0.46143
 Alpha  occ. eigenvalues --   -0.45230  -0.42640  -0.41372  -0.40303  -0.39565
 Alpha  occ. eigenvalues --   -0.37536  -0.37234  -0.36258  -0.35337  -0.34609
 Alpha  occ. eigenvalues --   -0.33472  -0.33213  -0.32734  -0.32071  -0.29397
 Alpha  occ. eigenvalues --   -0.28553  -0.27359  -0.27210  -0.25532  -0.24344
 Alpha  occ. eigenvalues --   -0.23806  -0.23337  -0.22840  -0.21819  -0.20458
 Alpha  occ. eigenvalues --   -0.00961
 Alpha virt. eigenvalues --    0.08346   0.09460   0.10376   0.11078   0.11865
 Alpha virt. eigenvalues --    0.12282   0.12973   0.15600   0.16507   0.16911
 Alpha virt. eigenvalues --    0.17478   0.18231   0.18929   0.19513   0.20841

  Beta  occ. eigenvalues --  -77.14904 -77.13825 -19.13431 -19.12216 -19.11719
  Beta  occ. eigenvalues --  -19.06390 -19.06160 -19.05083 -19.04907 -14.37296
  Beta  occ. eigenvalues --  -10.21733 -10.20618 -10.16967 -10.16492  -6.59781
  Beta  occ. eigenvalues --   -6.58666  -4.76277  -4.75988  -4.75965  -4.75178
  Beta  occ. eigenvalues --   -4.74875  -4.74839  -1.00818  -0.99500  -0.98243
  Beta  occ. eigenvalues --   -0.94042  -0.92397  -0.91250  -0.88753  -0.87423
  Beta  occ. eigenvalues --   -0.77520  -0.69934  -0.62120  -0.57496  -0.54653
  Beta  occ. eigenvalues --   -0.52820  -0.51295  -0.50908  -0.48676  -0.45577
  Beta  occ. eigenvalues --   -0.44987  -0.42562  -0.41351  -0.40242  -0.39417
  Beta  occ. eigenvalues --   -0.37473  -0.37171  -0.36151  -0.35307  -0.34524
  Beta  occ. eigenvalues --   -0.33450  -0.33168  -0.32692  -0.32046  -0.29393
  Beta  occ. eigenvalues --   -0.28542  -0.27356  -0.27209  -0.25528  -0.24337
  Beta  occ. eigenvalues --   -0.23802  -0.23335  -0.22838  -0.21819  -0.20455
  Beta virt. eigenvalues --    0.06369   0.08378   0.09903   0.11656   0.11989
  Beta virt. eigenvalues --    0.12792   0.13106   0.13960   0.16383   0.16966
  Beta virt. eigenvalues --    0.17167   0.17817   0.18461   0.19065   0.19741

 Mulliken charges and spin densities:
               1          2
     1  C   -0.100430   0.067623
     2  C   -0.157768   0.004392
     3  H    0.109483   0.021215
     4  H    0.109475   0.022022
     5  C   -0.191942   0.014310
     6  H    0.092504   0.010145
     7  H    0.082923   0.012096
     8  H    0.095245  -0.000626
     9  H    0.089737  -0.000539
    10  N   -0.141173  -0.239603
    11  H   -0.016212   0.368909
    12  H   -0.010711   0.360759
    13  H   -0.007658   0.357099
    14  C   -0.131847   0.000296
    15  O   -0.605088   0.000149
    16  H    0.311615  -0.000029
    17  P    0.971423   0.000583
    18  P    0.974407   0.000049
    19  O   -0.715378   0.000179
    20  O   -0.704996  -0.000010
    21  O   -0.698616   0.000100
    22  O   -0.727892   0.000051
    23  O   -0.647498   0.000113
    24  H    0.317595   0.000485
    25  O   -0.623873   0.000049
    26  H    0.326675   0.000183
 Sum of Mulliken charges =  -2.00000   1.00000

 Dipole moment (field-independent basis, Debye):
    X=             14.7791    Y=             -6.5626    Z=             -0.8876  Tot=             16.1950
 There are a total of      587758 grid points.
 ElSum from          density=      131.0000010853
 ElSum from atomic densities=      128.9999981320
 Hirshfeld populations at iteration   1 (CA, CB, DipXYZ):
               1          2          3          4          5
     1  C    3.040285   2.969245   0.029443   0.024037   0.023731
     2  C    3.049110   3.020045  -0.019852  -0.039936  -0.037949
     3  H    0.497698   0.474752  -0.029473  -0.134046   0.015219
     4  H    0.497863   0.474568  -0.019320   0.003359  -0.136976
     5  C    3.037610   3.026304   0.024410   0.019710   0.009131

 Normal termination of Gaussian 16 at Mon Feb  8 14:32:31 2021.
