 Gaussian 16, Revision A.03,
 Gaussian 16:  EM64L-G16RevA.03 25-Dec-2016

 ----------------------------------------------------------------------
 #t B3LYP/6-31G(d,p) scrf=(solvent=water) # Gfinput IOP(6/7=3) Pop=hirs
 hfeld Density Test # Units(Ang,Deg)
 ----------------------------------------------------------------------
 ----------------------
 ale-1p-2dp-opt-g09.log
 ----------------------
 Symbolic Z-matrix:
 Charge =  0 Multiplicity = 2

                         Standard orientation:
 ---------------------------------------------------------------------
 Center     Atomic      Atomic             Coordinates (Angstroms)
 Number     Number       Type             X           Y           Z
 ---------------------------------------------------------------------
      1          6           0        3.423991   -1.082659   -0.432039
      2          6           0        2.285451   -0.290339    0.194461
      3          1           0        3.366802   -2.147759   -0.201109
      4          1           0        3.466791   -0.959779   -1.515669
      5          6           0        0.929591   -0.786130   -0.330849
      6          1           0        2.306091   -0.407789    1.283321
      7          1           0        2.414320    0.773541   -0.018469
      8          1           0        0.874261   -0.634010   -1.413999
      9          1           0        0.863962   -1.863370   -0.145869
     10          7           0        4.762421   -0.609218    0.096461
     11          1           0        5.540371   -1.122167   -0.327099
     12          1           0        4.908400    0.385872   -0.097339
     13          1           0        4.826901   -0.735348    1.110661
     14          6           0       -0.299610   -0.118321    0.312891
     15          8           0       -0.175640   -0.208471    1.747171
     16          1           0       -1.097829   -0.377672    2.034751
     17         15           0       -1.888229   -1.062832   -0.097739
     18         15           0       -0.492971    1.685649   -0.189269
     19          8           0       -2.684899   -1.012173    1.197681
     20          8           0       -1.800351    2.215628    0.357521
     21          8           0       -2.483199   -0.669653   -1.429849
     22          8           0       -0.116611    1.876029   -1.647799
     23          8           0        0.735449    2.412919    0.702511
     24          1           0        1.327668    2.813570    0.050481
     25          8           0       -1.380118   -2.651422   -0.231199
     26          1           0       -1.210268   -2.840972   -1.164849
 ---------------------------------------------------------------------

 SCF Done:  E(UB3LYP) =  -1423.77581827     A.U. after   27 cycles

 The electronic state is 2-A.
 Alpha  occ. eigenvalues --  -77.20830 -77.20223 -19.22611 -19.17471 -19.17178
 Alpha  occ. eigenvalues --  -19.13261 -19.11514 -19.11417 -19.11179 -14.47852
 Alpha  occ. eigenvalues --  -10.30081 -10.26833 -10.21902 -10.21601  -6.65793
 Alpha  occ. eigenvalues --   -6.65118  -4.82193  -4.82143  -4.81909  -4.81538
 Alpha  occ. eigenvalues --   -4.81439  -4.81264  -1.08806  -1.04677  -1.04125
 Alpha  occ. eigenvalues --   -1.02111  -0.97879  -0.96938  -0.94389  -0.93575
 Alpha  occ. eigenvalues --   -0.83218  -0.76833  -0.68687  -0.63528  -0.60478
 Alpha  occ. eigenvalues --   -0.60337  -0.58335  -0.57684  -0.54683  -0.51968
 Alpha  occ. eigenvalues --   -0.50761  -0.48105  -0.46366  -0.46129  -0.45772
 Alpha  occ. eigenvalues --   -0.43061  -0.42074  -0.41296  -0.40839  -0.39689
 Alpha  occ. eigenvalues --   -0.39107  -0.38172  -0.37434  -0.37399  -0.36531
 Alpha  occ. eigenvalues --   -0.33527  -0.33173  -0.31919  -0.31274  -0.30212
 Alpha  occ. eigenvalues --   -0.29415  -0.28990  -0.28383  -0.27881  -0.27585
 Alpha virt. eigenvalues --    0.02331   0.04053   0.06077   0.06845   0.07635
 Alpha virt. eigenvalues --    0.08713   0.09051   0.09497   0.11089   0.12058
 Alpha virt. eigenvalues --    0.12912   0.13726   0.14575   0.15082   0.15475

  Beta  occ. eigenvalues --  -77.20836 -77.20222 -19.21936 -19.17350 -19.17116
  Beta  occ. eigenvalues --  -19.12755 -19.11232 -19.11182 -19.11064 -14.47853
  Beta  occ. eigenvalues --  -10.29742 -10.26834 -10.21896 -10.21584  -6.65799
  Beta  occ. eigenvalues --   -6.65117  -4.82221  -4.82102  -4.81933  -4.81548
  Beta  occ. eigenvalues --   -4.81414  -4.81271  -1.07459  -1.04224  -1.03828
  Beta  occ. eigenvalues --   -1.02110  -0.97086  -0.96535  -0.93402  -0.93103
  Beta  occ. eigenvalues --   -0.82977  -0.76277  -0.68180  -0.63119  -0.60338
  Beta  occ. eigenvalues --   -0.59749  -0.58220  -0.57225  -0.54388  -0.51887
  Beta  occ. eigenvalues --   -0.50151  -0.47717  -0.45952  -0.45478  -0.45207
  Beta  occ. eigenvalues --   -0.42645  -0.41890  -0.40943  -0.40327  -0.39242
  Beta  occ. eigenvalues --   -0.38249  -0.37790  -0.37173  -0.36819  -0.34236
  Beta  occ. eigenvalues --   -0.32941  -0.32239  -0.31452  -0.30214  -0.28961
  Beta  occ. eigenvalues --   -0.28140  -0.27631  -0.27345  -0.27086
  Beta virt. eigenvalues --   -0.21494   0.02342   0.04482   0.06459   0.07071
  Beta virt. eigenvalues --    0.07899   0.08864   0.09118   0.09620   0.11759
  Beta virt. eigenvalues --    0.12173   0.13244   0.13843   0.14779   0.15310

 Mulliken charges and spin densities:
               1          2
     1  C   -0.110466  -0.000616
     2  C   -0.201463   0.008265
     3  H    0.190259   0.000059
     4  H    0.191006   0.000045
     5  C   -0.217900   0.000339
     6  H    0.151693  -0.000331
     7  H    0.135835   0.000944
     8  H    0.154681  -0.001251
     9  H    0.160005   0.016497
    10  N   -0.525137  -0.000069
    11  H    0.385748   0.000024
    12  H    0.380661   0.000003
    13  H    0.380910   0.000004
    14  C   -0.140060   0.206253
    15  O   -0.441107   0.246896
    16  H    0.358281  -0.004562
    17  P    1.048866   0.001833
    18  P    1.078003   0.008203
    19  O   -0.658897   0.045329
    20  O   -0.603718   0.113036
    21  O   -0.617519   0.095464
    22  O   -0.593936   0.202052
    23  O   -0.609605   0.041594
    24  H    0.351540  -0.000827
    25  O   -0.597955   0.020801
    26  H    0.350274   0.000015
 Sum of Mulliken charges =  -0.00000   1.00000

 Dipole moment (field-independent basis, Debye):
    X=             34.6318    Y=             -7.2303    Z=              0.1195  Tot=             35.3787
 There are a total of      587758 grid points.
 ElSum from          density=      129.0000011373
 ElSum from atomic densities=      128.9999981320
 Hirshfeld populations at iteration   1 (CA, CB, DipXYZ):
               1          2          3          4          5
     1  C    2.973290   2.973227   0.073708   0.014547   0.019116
     2  C    3.023739   3.017189   0.014245  -0.030022  -0.024184
     3  H    0.463482   0.463309  -0.004869  -0.162758   0.032109
     4  H    0.463407   0.463386   0.009530   0.015088  -0.165228
     5  C    3.029083   3.012192   0.027808   0.002072   0.002314

 Normal termination of Gaussian 16 at Mon Feb  8 14:35:50 2021.
