 Gaussian 16, Revision A.03,
 Gaussian 16:  EM64L-G16RevA.03 25-Dec-2016

 ----------------------------------------------------------------------
 #t B3LYP/6-31G(d,p) scrf=(solvent=water) # Gfinput IOP(6/7=3) Pop=hirs
 hfeld Density Test # Units(Ang,Deg)
 ----------------------------------------------------------------------
 ----------------------
 ale-1p-2dp-opt-g09.log
 ----------------------
 Symbolic Z-matrix:
 Charge = -1 Multiplicity = 1

                         Standard orientation:
 ---------------------------------------------------------------------
 Center     Atomic      Atomic             Coordinates (Angstroms)
 Number     Number       Type             X           Y           Z
 ---------------------------------------------------------------------
      1          6           0        3.423991   -1.082659   -0.432039
      2          6           0        2.285451   -0.290339    0.194461
      3          1           0        3.366802   -2.147759   -0.201109
      4          1           0        3.466791   -0.959779   -1.515669
      5          6           0        0.929591   -0.786130   -0.330849
      6          1           0        2.306091   -0.407789    1.283321
      7          1           0        2.414320    0.773541   -0.018469
      8          1           0        0.874261   -0.634010   -1.413999
      9          1           0        0.863962   -1.863370   -0.145869
     10          7           0        4.762421   -0.609218    0.096461
     11          1           0        5.540371   -1.122167   -0.327099
     12          1           0        4.908400    0.385872   -0.097339
     13          1           0        4.826901   -0.735348    1.110661
     14          6           0       -0.299610   -0.118321    0.312891
     15          8           0       -0.175640   -0.208471    1.747171
     16          1           0       -1.097829   -0.377672    2.034751
     17         15           0       -1.888229   -1.062832   -0.097739
     18         15           0       -0.492971    1.685649   -0.189269
     19          8           0       -2.684899   -1.012173    1.197681
     20          8           0       -1.800351    2.215628    0.357521
     21          8           0       -2.483199   -0.669653   -1.429849
     22          8           0       -0.116611    1.876029   -1.647799
     23          8           0        0.735449    2.412919    0.702511
     24          1           0        1.327668    2.813570    0.050481
     25          8           0       -1.380118   -2.651422   -0.231199
     26          1           0       -1.210268   -2.840972   -1.164849
 ---------------------------------------------------------------------

 SCF Done:  E(RB3LYP) =  -1423.98799970     A.U. after   13 cycles

 The electronic state is 1-A.
 Alpha  occ. eigenvalues --  -77.15268 -77.14196 -19.13719 -19.12615 -19.12192
 Alpha  occ. eigenvalues --  -19.06687 -19.06427 -19.05409 -19.05198 -14.47212
 Alpha  occ. eigenvalues --  -10.25723 -10.21256 -10.19314 -10.17899  -6.60139
 Alpha  occ. eigenvalues --   -6.59037  -4.76633  -4.76348  -4.76325  -4.75547
 Alpha  occ. eigenvalues --   -4.75247  -4.75208  -1.01465  -1.01149  -0.99882
 Alpha  occ. eigenvalues --   -0.98679  -0.92679  -0.91569  -0.89026  -0.87724
 Alpha  occ. eigenvalues --   -0.80256  -0.72569  -0.64947  -0.60089  -0.59717
 Alpha  occ. eigenvalues --   -0.56970  -0.54924  -0.51949  -0.50054  -0.49470
 Alpha  occ. eigenvalues --   -0.47238  -0.43928  -0.41922  -0.41338  -0.40976
 Alpha  occ. eigenvalues --   -0.39072  -0.38481  -0.37241  -0.36288  -0.35717
 Alpha  occ. eigenvalues --   -0.34530  -0.33896  -0.33395  -0.32632  -0.29812
 Alpha  occ. eigenvalues --   -0.29057  -0.27746  -0.27485  -0.25846  -0.24737
 Alpha  occ. eigenvalues --   -0.24129  -0.23603  -0.23148  -0.22113  -0.20895
 Alpha virt. eigenvalues --    0.02856   0.07810   0.08742   0.09297   0.10045
 Alpha virt. eigenvalues --    0.10554   0.11615   0.12328   0.13844   0.14864
 Alpha virt. eigenvalues --    0.16146   0.16837   0.17393   0.17924   0.18675

 Mulliken charges:
               1
     1  C   -0.111184
     2  C   -0.190783
     3  H    0.178811
     4  H    0.179673
     5  C   -0.195555
     6  H    0.128276
     7  H    0.117173
     8  H    0.109394
     9  H    0.102854
    10  N   -0.524770
    11  H    0.380788
    12  H    0.376859
    13  H    0.377056
    14  C   -0.132883
    15  O   -0.603583
    16  H    0.314222
    17  P    0.975735
    18  P    0.976969
    19  O   -0.712756
    20  O   -0.702006
    21  O   -0.695763
    22  O   -0.725291
    23  O   -0.647686
    24  H    0.319772
    25  O   -0.623533
    26  H    0.328211
 Sum of Mulliken charges =  -1.00000

 Dipole moment (field-independent basis, Debye):
    X=             37.4410    Y=             -9.1407    Z=             -0.1799  Tot=             38.5410
 There are a total of      587758 grid points.
 ElSum from          density=      130.0000011923
 ElSum from atomic densities=      128.9999981320
 Hirshfeld populations at iteration   1 (CA, CB, DipXYZ):
               1          2          3          4          5
     1  C    2.976324   2.976324   0.076287   0.014571   0.018677
     2  C    3.024260   3.024260   0.009633  -0.026683  -0.023313
     3  H    0.466339   0.466339  -0.003915  -0.158406   0.032298
     4  H    0.466171   0.466171   0.009560   0.015721  -0.161255
     5  C    3.028047   3.028047   0.029988   0.018836   0.008433

 Normal termination of Gaussian 16 at Mon Feb  8 14:38:13 2021.
